TITLE = "MESH AND SOLUTIONS"
VARIABLES = "X", "Y"
ZONE T= "IEL     1"  I=2, J=2  DATAPACKING = POINT
   0.00000     0.00000
   0.00000     1.00000
   1.00000     0.00000
   1.00000     1.00000
ZONE T= "IEL     2"  I=2, J=2  DATAPACKING = POINT
   0.00000     1.00000
   0.00000     2.00000
   1.00000     1.00000
   1.00000     2.00000
ZONE T= "IEL     3"  I=2, J=2  DATAPACKING = POINT
   1.00000     1.00000
   1.00000     2.00000
   2.00000     1.00000
   2.00000     2.00000
ZONE T= "IEL     4"  I=2, J=2  DATAPACKING = POINT
   1.00000     0.00000
   1.00000     1.00000
   2.00000     0.00000
   2.00000     1.00000
ZONE T= "IEL     5"  I=2, J=2  DATAPACKING = POINT
   2.00000     0.00000
   2.00000     1.00000
   3.00000     0.00000
   3.00000     1.00000
ZONE T= "IEL     6"  I=2, J=2  DATAPACKING = POINT
   3.00000     0.00000
   3.00000     1.00000
   4.00000     0.00000
   4.00000     1.00000
ZONE T= "IEL     7"  I=2, J=2  DATAPACKING = POINT
   3.00000     1.00000
   3.00000     2.00000
   4.00000     1.00000
   4.00000     2.00000
ZONE T= "IEL     8"  I=2, J=2  DATAPACKING = POINT
   2.00000     1.00000
   2.00000     2.00000
   3.00000     1.00000
   3.00000     2.00000
ZONE T= "IEL     9"  I=2, J=2  DATAPACKING = POINT
   2.00000     2.00000
   2.00000     3.00000
   3.00000     2.00000
   3.00000     3.00000
ZONE T= "IEL    10"  I=2, J=2  DATAPACKING = POINT
   3.00000     2.00000
   3.00000     3.00000
   4.00000     2.00000
   4.00000     3.00000
ZONE T= "IEL    11"  I=2, J=2  DATAPACKING = POINT
   3.00000     3.00000
   3.00000     4.00000
   4.00000     3.00000
   4.00000     4.00000
ZONE T= "IEL    12"  I=2, J=2  DATAPACKING = POINT
   2.00000     3.00000
   2.00000     4.00000
   3.00000     3.00000
   3.00000     4.00000
ZONE T= "IEL    13"  I=2, J=2  DATAPACKING = POINT
   1.00000     3.00000
   1.00000     4.00000
   2.00000     3.00000
   2.00000     4.00000
ZONE T= "IEL    14"  I=2, J=2  DATAPACKING = POINT
   1.00000     2.00000
   1.00000     3.00000
   2.00000     2.00000
   2.00000     3.00000
ZONE T= "IEL    15"  I=2, J=2  DATAPACKING = POINT
   0.00000     2.00000
   0.00000     3.00000
   1.00000     2.00000
   1.00000     3.00000
ZONE T= "IEL    16"  I=2, J=2  DATAPACKING = POINT
   0.00000     3.00000
   0.00000     4.00000
   1.00000     3.00000
   1.00000     4.00000
ZONE T= "IEL    17"  I=2, J=2  DATAPACKING = POINT
   0.00000     4.00000
   0.00000     5.00000
   1.00000     4.00000
   1.00000     5.00000
ZONE T= "IEL    18"  I=2, J=2  DATAPACKING = POINT
   1.00000     4.00000
   1.00000     5.00000
   2.00000     4.00000
   2.00000     5.00000
ZONE T= "IEL    19"  I=2, J=2  DATAPACKING = POINT
   1.00000     5.00000
   1.00000     6.00000
   2.00000     5.00000
   2.00000     6.00000
ZONE T= "IEL    20"  I=2, J=2  DATAPACKING = POINT
   0.00000     5.00000
   0.00000     6.00000
   1.00000     5.00000
   1.00000     6.00000
ZONE T= "IEL    21"  I=2, J=2  DATAPACKING = POINT
   0.00000     6.00000
   0.00000     7.00000
   1.00000     6.00000
   1.00000     7.00000
ZONE T= "IEL    22"  I=2, J=2  DATAPACKING = POINT
   0.00000     7.00000
   0.00000     8.00000
   1.00000     7.00000
   1.00000     8.00000
ZONE T= "IEL    23"  I=2, J=2  DATAPACKING = POINT
   1.00000     7.00000
   1.00000     8.00000
   2.00000     7.00000
   2.00000     8.00000
ZONE T= "IEL    24"  I=2, J=2  DATAPACKING = POINT
   1.00000     6.00000
   1.00000     7.00000
   2.00000     6.00000
   2.00000     7.00000
ZONE T= "IEL    25"  I=2, J=2  DATAPACKING = POINT
   2.00000     6.00000
   2.00000     7.00000
   3.00000     6.00000
   3.00000     7.00000
ZONE T= "IEL    26"  I=2, J=2  DATAPACKING = POINT
   2.00000     7.00000
   2.00000     8.00000
   3.00000     7.00000
   3.00000     8.00000
ZONE T= "IEL    27"  I=2, J=2  DATAPACKING = POINT
   3.00000     7.00000
   3.00000     8.00000
   4.00000     7.00000
   4.00000     8.00000
ZONE T= "IEL    28"  I=2, J=2  DATAPACKING = POINT
   3.00000     6.00000
   3.00000     7.00000
   4.00000     6.00000
   4.00000     7.00000
ZONE T= "IEL    29"  I=2, J=2  DATAPACKING = POINT
   3.00000     5.00000
   3.00000     6.00000
   4.00000     5.00000
   4.00000     6.00000
ZONE T= "IEL    30"  I=2, J=2  DATAPACKING = POINT
   2.00000     5.00000
   2.00000     6.00000
   3.00000     5.00000
   3.00000     6.00000
ZONE T= "IEL    31"  I=2, J=2  DATAPACKING = POINT
   2.00000     4.00000
   2.00000     5.00000
   3.00000     4.00000
   3.00000     5.00000
ZONE T= "IEL    32"  I=2, J=2  DATAPACKING = POINT
   3.00000     4.00000
   3.00000     5.00000
   4.00000     4.00000
   4.00000     5.00000
ZONE T= "IEL    33"  I=2, J=2  DATAPACKING = POINT
   4.00000     4.00000
   4.00000     5.00000
   5.00000     4.00000
   5.00000     5.00000
ZONE T= "IEL    34"  I=2, J=2  DATAPACKING = POINT
   5.00000     4.00000
   5.00000     5.00000
   6.00000     4.00000
   6.00000     5.00000
ZONE T= "IEL    35"  I=2, J=2  DATAPACKING = POINT
   5.00000     5.00000
   5.00000     6.00000
   6.00000     5.00000
   6.00000     6.00000
ZONE T= "IEL    36"  I=2, J=2  DATAPACKING = POINT
   4.00000     5.00000
   4.00000     6.00000
   5.00000     5.00000
   5.00000     6.00000
ZONE T= "IEL    37"  I=2, J=2  DATAPACKING = POINT
   4.00000     6.00000
   4.00000     7.00000
   5.00000     6.00000
   5.00000     7.00000
ZONE T= "IEL    38"  I=2, J=2  DATAPACKING = POINT
   4.00000     7.00000
   4.00000     8.00000
   5.00000     7.00000
   5.00000     8.00000
ZONE T= "IEL    39"  I=2, J=2  DATAPACKING = POINT
   5.00000     7.00000
   5.00000     8.00000
   6.00000     7.00000
   6.00000     8.00000
ZONE T= "IEL    40"  I=2, J=2  DATAPACKING = POINT
   5.00000     6.00000
   5.00000     7.00000
   6.00000     6.00000
   6.00000     7.00000
ZONE T= "IEL    41"  I=2, J=2  DATAPACKING = POINT
   6.00000     6.00000
   6.00000     7.00000
   7.00000     6.00000
   7.00000     7.00000
ZONE T= "IEL    42"  I=2, J=2  DATAPACKING = POINT
   6.00000     7.00000
   6.00000     8.00000
   7.00000     7.00000
   7.00000     8.00000
ZONE T= "IEL    43"  I=2, J=2  DATAPACKING = POINT
   7.00000     7.00000
   7.00000     8.00000
   8.00000     7.00000
   8.00000     8.00000
ZONE T= "IEL    44"  I=2, J=2  DATAPACKING = POINT
   7.00000     6.00000
   7.00000     7.00000
   8.00000     6.00000
   8.00000     7.00000
ZONE T= "IEL    45"  I=2, J=2  DATAPACKING = POINT
   7.00000     5.00000
   7.00000     6.00000
   8.00000     5.00000
   8.00000     6.00000
ZONE T= "IEL    46"  I=2, J=2  DATAPACKING = POINT
   6.00000     5.00000
   6.00000     6.00000
   7.00000     5.00000
   7.00000     6.00000
ZONE T= "IEL    47"  I=2, J=2  DATAPACKING = POINT
   6.00000     4.00000
   6.00000     5.00000
   7.00000     4.00000
   7.00000     5.00000
ZONE T= "IEL    48"  I=2, J=2  DATAPACKING = POINT
   7.00000     4.00000
   7.00000     5.00000
   8.00000     4.00000
   8.00000     5.00000
ZONE T= "IEL    49"  I=2, J=2  DATAPACKING = POINT
   7.00000     3.00000
   7.00000     4.00000
   8.00000     3.00000
   8.00000     4.00000
ZONE T= "IEL    50"  I=2, J=2  DATAPACKING = POINT
   7.00000     2.00000
   7.00000     3.00000
   8.00000     2.00000
   8.00000     3.00000
ZONE T= "IEL    51"  I=2, J=2  DATAPACKING = POINT
   6.00000     2.00000
   6.00000     3.00000
   7.00000     2.00000
   7.00000     3.00000
ZONE T= "IEL    52"  I=2, J=2  DATAPACKING = POINT
   6.00000     3.00000
   6.00000     4.00000
   7.00000     3.00000
   7.00000     4.00000
ZONE T= "IEL    53"  I=2, J=2  DATAPACKING = POINT
   5.00000     3.00000
   5.00000     4.00000
   6.00000     3.00000
   6.00000     4.00000
ZONE T= "IEL    54"  I=2, J=2  DATAPACKING = POINT
   4.00000     3.00000
   4.00000     4.00000
   5.00000     3.00000
   5.00000     4.00000
ZONE T= "IEL    55"  I=2, J=2  DATAPACKING = POINT
   4.00000     2.00000
   4.00000     3.00000
   5.00000     2.00000
   5.00000     3.00000
ZONE T= "IEL    56"  I=2, J=2  DATAPACKING = POINT
   5.00000     2.00000
   5.00000     3.00000
   6.00000     2.00000
   6.00000     3.00000
ZONE T= "IEL    57"  I=2, J=2  DATAPACKING = POINT
   5.00000     1.00000
   5.00000     2.00000
   6.00000     1.00000
   6.00000     2.00000
ZONE T= "IEL    58"  I=2, J=2  DATAPACKING = POINT
   4.00000     1.00000
   4.00000     2.00000
   5.00000     1.00000
   5.00000     2.00000
ZONE T= "IEL    59"  I=2, J=2  DATAPACKING = POINT
   4.00000     0.00000
   4.00000     1.00000
   5.00000     0.00000
   5.00000     1.00000
ZONE T= "IEL    60"  I=2, J=2  DATAPACKING = POINT
   5.00000     0.00000
   5.00000     1.00000
   6.00000     0.00000
   6.00000     1.00000
ZONE T= "IEL    61"  I=2, J=2  DATAPACKING = POINT
   6.00000     0.00000
   6.00000     1.00000
   7.00000     0.00000
   7.00000     1.00000
ZONE T= "IEL    62"  I=2, J=2  DATAPACKING = POINT
   6.00000     1.00000
   6.00000     2.00000
   7.00000     1.00000
   7.00000     2.00000
ZONE T= "IEL    63"  I=2, J=2  DATAPACKING = POINT
   7.00000     1.00000
   7.00000     2.00000
   8.00000     1.00000
   8.00000     2.00000
ZONE T= "IEL    64"  I=2, J=2  DATAPACKING = POINT
   7.00000     0.00000
   7.00000     1.00000
   8.00000     0.00000
   8.00000     1.00000
