TITLE = "MESH AND SOLUTIONS"
VARIABLES = "X", "Y", "PRESSURE", "U", "V",  "N", "M", "PROC"
ZONE T= "IEL     1",  I=11,  J=11,  SOLUTIONTIME=   0.10020,  DATAPACKING = POINT
   0.00000     0.00000     0.49553     0.34833     0.34833       8     8     0
   0.00796     0.00000     0.53695     0.37827     0.37885       8     8     0
   0.04099     0.00000     0.70414     0.49824     0.49838       8     8     0
   0.09666     0.00000     0.93383     0.66052     0.66048       8     8     0
   0.16894     0.00000     0.97442     0.68884     0.68926       8     8     0
   0.25000     0.00000     0.66558     0.47085     0.47025       8     8     0
   0.33106     0.00000     0.28858     0.20376     0.20431       8     8     0
   0.40334     0.00000     0.09343     0.06639     0.06586       8     8     0
   0.45901     0.00000     0.03052     0.02132     0.02170       8     8     0
   0.49204     0.00000     0.01391     0.00983     0.01017       8     8     0
   0.50000     0.00000     0.01152     0.00890     0.00802       8     8     0
   0.00000     0.00796     0.53695     0.37885     0.37827       8     8     0
   0.00796     0.00796     0.57826     0.40832     0.40832       8     8     0
   0.04099     0.00796     0.74222     0.52512     0.52491       8     8     0
   0.09666     0.00796     0.95368     0.67437     0.67420       8     8     0
   0.16894     0.00796     0.95772     0.67705     0.67743       8     8     0
   0.25000     0.00796     0.62614     0.44300     0.44254       8     8     0
   0.33106     0.00796     0.25929     0.18303     0.18354       8     8     0
   0.40334     0.00796     0.08065     0.05736     0.05682       8     8     0
   0.45901     0.00796     0.02555     0.01778     0.01820       8     8     0
   0.49204     0.00796     0.01141     0.00814     0.00826       8     8     0
   0.50000     0.00796     0.00916     0.00741     0.00620       8     8     0
   0.00000     0.04099     0.70414     0.49838     0.49824       8     8     0
   0.00796     0.04099     0.74222     0.52491     0.52512       8     8     0
   0.04099     0.04099     0.88316     0.62451     0.62451       8     8     0
   0.09666     0.04099     0.99968     0.70692     0.70675       8     8     0
   0.16894     0.04099     0.85093     0.60151     0.60166       8     8     0
   0.25000     0.04099     0.46214     0.32703     0.32681       8     8     0
   0.33106     0.04099     0.15866     0.11194     0.11225       8     8     0
   0.40334     0.04099     0.04214     0.03006     0.02970       8     8     0
   0.45901     0.04099     0.01148     0.00787     0.00821       8     8     0
   0.49204     0.04099     0.00485     0.00356     0.00346       8     8     0
   0.50000     0.04099     0.00338     0.00332     0.00225       8     8     0
   0.00000     0.09666     0.93383     0.66048     0.66052       8     8     0
   0.00796     0.09666     0.95368     0.67420     0.67437       8     8     0
   0.04099     0.09666     0.99968     0.70675     0.70692       8     8     0
   0.09666     0.09666     0.91182     0.64498     0.64498       8     8     0
   0.16894     0.09666     0.58727     0.41514     0.41519       8     8     0
   0.25000     0.09666     0.23332     0.16503     0.16498       8     8     0
   0.33106     0.09666     0.05858     0.04138     0.04139       8     8     0
   0.40334     0.09666     0.01195     0.00848     0.00847       8     8     0
   0.45901     0.09666     0.00228     0.00158     0.00162       8     8     0
   0.49204     0.09666     0.00114     0.00081     0.00086       8     8     0
   0.50000     0.09666     0.00072     0.00070     0.00068       8     8     0
   0.00000     0.16894     0.97442     0.68926     0.68884       8     8     0
   0.00796     0.16894     0.95772     0.67743     0.67705       8     8     0
   0.04099     0.16894     0.85093     0.60166     0.60151       8     8     0
   0.09666     0.16894     0.58727     0.41519     0.41514       8     8     0
   0.16894     0.16894     0.26380     0.18659     0.18659       8     8     0
   0.25000     0.16894     0.06953     0.04911     0.04919       8     8     0
   0.33106     0.16894     0.01181     0.00841     0.00834       8     8     0
   0.40334     0.16894     0.00150     0.00100     0.00106       8     8     0
   0.45901     0.16894     0.00031     0.00026     0.00022       8     8     0
   0.49204     0.16894     0.00018     0.00011     0.00010       8     8     0
   0.50000     0.16894     0.00024    -0.00001     0.00012       8     8     0
   0.00000     0.25000     0.66558     0.47025     0.47085       8     8     0
   0.00796     0.25000     0.62614     0.44254     0.44300       8     8     0
   0.04099     0.25000     0.46214     0.32681     0.32703       8     8     0
   0.09666     0.25000     0.23332     0.16498     0.16503       8     8     0
   0.16894     0.25000     0.06953     0.04919     0.04911       8     8     0
   0.25000     0.25000     0.01168     0.00823     0.00823       8     8     0
   0.33106     0.25000     0.00129     0.00093     0.00093       8     8     0
   0.40334     0.25000     0.00006     0.00003     0.00004       8     8     0
   0.45901     0.25000     0.00011     0.00009     0.00007       8     8     0
   0.49204     0.25000    -0.00006    -0.00005    -0.00004       8     8     0
   0.50000     0.25000     0.00001    -0.00006     0.00001       8     8     0
   0.00000     0.33106     0.28858     0.20431     0.20376       8     8     0
   0.00796     0.33106     0.25929     0.18354     0.18303       8     8     0
   0.04099     0.33106     0.15866     0.11225     0.11194       8     8     0
   0.09666     0.33106     0.05858     0.04139     0.04138       8     8     0
   0.16894     0.33106     0.01181     0.00834     0.00841       8     8     0
   0.25000     0.33106     0.00129     0.00093     0.00093       8     8     0
   0.33106     0.33106     0.00003     0.00001     0.00001       8     8     0
   0.40334     0.33106     0.00003     0.00003     0.00002       8     8     0
   0.45901     0.33106    -0.00002    -0.00003    -0.00001       8     8     0
   0.49204     0.33106     0.00000     0.00001    -0.00000       8     8     0
   0.50000     0.33106    -0.00002     0.00002    -0.00003       8     8     0
   0.00000     0.40334     0.09343     0.06586     0.06639       8     8     0
   0.00796     0.40334     0.08065     0.05682     0.05736       8     8     0
   0.04099     0.40334     0.04214     0.02970     0.03006       8     8     0
   0.09666     0.40334     0.01195     0.00847     0.00848       8     8     0
   0.16894     0.40334     0.00150     0.00106     0.00100       8     8     0
   0.25000     0.40334     0.00006     0.00004     0.00003       8     8     0
   0.33106     0.40334     0.00003     0.00002     0.00003       8     8     0
   0.40334     0.40334     0.00001     0.00001     0.00001       8     8     0
   0.45901     0.40334    -0.00000    -0.00000    -0.00000       8     8     0
   0.49204     0.40334     0.00000     0.00000     0.00001       8     8     0
   0.50000     0.40334    -0.00001     0.00001     0.00001       8     8     0
   0.00000     0.45901     0.03052     0.02170     0.02132       8     8     0
   0.00796     0.45901     0.02555     0.01820     0.01778       8     8     0
   0.04099     0.45901     0.01148     0.00821     0.00787       8     8     0
   0.09666     0.45901     0.00228     0.00162     0.00158       8     8     0
   0.16894     0.45901     0.00031     0.00022     0.00026       8     8     0
   0.25000     0.45901     0.00011     0.00007     0.00009       8     8     0
   0.33106     0.45901    -0.00002    -0.00001    -0.00003       8     8     0
   0.40334     0.45901    -0.00000    -0.00000    -0.00000       8     8     0
   0.45901     0.45901    -0.00001    -0.00000    -0.00000       8     8     0
   0.49204     0.45901     0.00000     0.00000    -0.00001       8     8     0
   0.50000     0.45901     0.00001    -0.00001    -0.00000       8     8     0
   0.00000     0.49204     0.01391     0.01017     0.00983       8     8     0
   0.00796     0.49204     0.01141     0.00826     0.00814       8     8     0
   0.04099     0.49204     0.00485     0.00346     0.00356       8     8     0
   0.09666     0.49204     0.00114     0.00086     0.00081       8     8     0
   0.16894     0.49204     0.00018     0.00010     0.00011       8     8     0
   0.25000     0.49204    -0.00006    -0.00004    -0.00005       8     8     0
   0.33106     0.49204     0.00000    -0.00000     0.00001       8     8     0
   0.40334     0.49204     0.00000     0.00001     0.00000       8     8     0
   0.45901     0.49204     0.00000    -0.00001     0.00000       8     8     0
   0.49204     0.49204     0.00000     0.00001     0.00001       8     8     0
   0.50000     0.49204    -0.00001     0.00003    -0.00001       8     8     0
   0.00000     0.50000     0.01152     0.00802     0.00890       8     8     0
   0.00796     0.50000     0.00916     0.00620     0.00741       8     8     0
   0.04099     0.50000     0.00338     0.00225     0.00332       8     8     0
   0.09666     0.50000     0.00072     0.00068     0.00070       8     8     0
   0.16894     0.50000     0.00024     0.00012    -0.00001       8     8     0
   0.25000     0.50000     0.00001     0.00001    -0.00006       8     8     0
   0.33106     0.50000    -0.00002    -0.00003     0.00002       8     8     0
   0.40334     0.50000    -0.00001     0.00001     0.00001       8     8     0
   0.45901     0.50000     0.00001    -0.00000    -0.00001       8     8     0
   0.49204     0.50000    -0.00001    -0.00001     0.00003       8     8     0
   0.50000     0.50000    -0.00003     0.00005     0.00005       8     8     0
ZONE T= "IEL     2",  I=11,  J=11,  SOLUTIONTIME=   0.10020,  DATAPACKING = POINT
   0.00000     0.50000     0.01188     0.00823     0.00865       8     8     0
   0.00796     0.50000     0.00964     0.00675     0.00695       8     8     0
   0.04099     0.50000     0.00390     0.00282     0.00273       8     8     0
   0.09666     0.50000     0.00084     0.00058     0.00062       8     8     0
   0.16894     0.50000     0.00016     0.00010     0.00013       8     8     0
   0.25000     0.50000    -0.00004    -0.00003    -0.00003       8     8     0
   0.33106     0.50000     0.00000     0.00001    -0.00000       8     8     0
   0.40334     0.50000    -0.00000    -0.00000    -0.00000       8     8     0
   0.45901     0.50000    -0.00000    -0.00000    -0.00000       8     8     0
   0.49204     0.50000     0.00002     0.00001     0.00002       8     8     0
   0.50000     0.50000     0.00002    -0.00000     0.00002       8     8     0
   0.00000     0.50796     0.00973     0.00670     0.00704       8     8     0
   0.00796     0.50796     0.00789     0.00548     0.00568       8     8     0
   0.04099     0.50796     0.00322     0.00226     0.00228       8     8     0
   0.09666     0.50796     0.00071     0.00046     0.00053       8     8     0
   0.16894     0.50796     0.00009     0.00006     0.00007       8     8     0
   0.25000     0.50796    -0.00003    -0.00002    -0.00003       8     8     0
   0.33106     0.50796     0.00001     0.00001     0.00000       8     8     0
   0.40334     0.50796    -0.00000    -0.00000    -0.00000       8     8     0
   0.45901     0.50796     0.00000     0.00000     0.00000       8     8     0
   0.49204     0.50796     0.00001     0.00001     0.00001       8     8     0
   0.50000     0.50796     0.00001    -0.00001     0.00002       8     8     0
   0.00000     0.54099     0.00402     0.00277     0.00285       8     8     0
   0.00796     0.54099     0.00324     0.00223     0.00231       8     8     0
   0.04099     0.54099     0.00130     0.00087     0.00095       8     8     0
   0.09666     0.54099     0.00025     0.00015     0.00019       8     8     0
   0.16894     0.54099    -0.00002    -0.00001    -0.00002       8     8     0
   0.25000     0.54099    -0.00001    -0.00000    -0.00001       8     8     0
   0.33106     0.54099     0.00001     0.00000     0.00000       8     8     0
   0.40334     0.54099    -0.00000    -0.00000    -0.00000       8     8     0
   0.45901     0.54099     0.00000     0.00000     0.00000       8     8     0
   0.49204     0.54099    -0.00000    -0.00000    -0.00000       8     8     0
   0.50000     0.54099     0.00000    -0.00001     0.00000       8     8     0
   0.00000     0.59666     0.00074     0.00055     0.00052       8     8     0
   0.00796     0.59666     0.00058     0.00043     0.00040       8     8     0
   0.04099     0.59666     0.00017     0.00014     0.00011       8     8     0
   0.09666     0.59666    -0.00001     0.00001    -0.00002       8     8     0
   0.16894     0.59666     0.00000     0.00000     0.00000       8     8     0
   0.25000     0.59666     0.00001     0.00000     0.00001       8     8     0
   0.33106     0.59666    -0.00000    -0.00000    -0.00000       8     8     0
   0.40334     0.59666    -0.00000     0.00000    -0.00000       8     8     0
   0.45901     0.59666    -0.00000    -0.00000    -0.00000       8     8     0
   0.49204     0.59666    -0.00000     0.00000    -0.00000       8     8     0
   0.50000     0.59666     0.00000     0.00000    -0.00000       8     8     0
   0.00000     0.66894     0.00008     0.00004     0.00005       8     8     0
   0.00796     0.66894     0.00006     0.00003     0.00004       8     8     0
   0.04099     0.66894     0.00002     0.00001     0.00002       8     8     0
   0.09666     0.66894     0.00002     0.00001     0.00002       8     8     0
   0.16894     0.66894     0.00000     0.00000     0.00000       8     8     0
   0.25000     0.66894    -0.00000    -0.00000    -0.00000       8     8     0
   0.33106     0.66894     0.00000     0.00000     0.00000       8     8     0
   0.40334     0.66894    -0.00000    -0.00000    -0.00000       8     8     0
   0.45901     0.66894     0.00000     0.00000     0.00000       8     8     0
   0.49204     0.66894     0.00000    -0.00000     0.00000       8     8     0
   0.50000     0.66894     0.00000    -0.00000     0.00000       8     8     0
   0.00000     0.75000    -0.00000     0.00000    -0.00000       8     8     0
   0.00796     0.75000    -0.00000     0.00001    -0.00000       8     8     0
   0.04099     0.75000    -0.00000     0.00000    -0.00001       8     8     0
   0.09666     0.75000    -0.00001    -0.00000    -0.00001       8     8     0
   0.16894     0.75000    -0.00000    -0.00000    -0.00000       8     8     0
   0.25000     0.75000     0.00000     0.00000     0.00000       8     8     0
   0.33106     0.75000    -0.00000    -0.00000    -0.00000       8     8     0
   0.40334     0.75000     0.00000     0.00000    -0.00000       8     8     0
   0.45901     0.75000    -0.00000    -0.00000    -0.00000       8     8     0
   0.49204     0.75000    -0.00000     0.00000    -0.00000       8     8     0
   0.50000     0.75000    -0.00000     0.00000    -0.00000       8     8     0
   0.00000     0.83106     0.00001    -0.00000     0.00001       8     8     0
   0.00796     0.83106     0.00000    -0.00000     0.00000       8     8     0
   0.04099     0.83106     0.00000    -0.00000     0.00000       8     8     0
   0.09666     0.83106     0.00001     0.00000     0.00001       8     8     0
   0.16894     0.83106     0.00000     0.00000     0.00000       8     8     0
   0.25000     0.83106    -0.00000    -0.00000    -0.00000       8     8     0
   0.33106     0.83106     0.00000     0.00000    -0.00000       8     8     0
   0.40334     0.83106    -0.00000    -0.00000     0.00000       8     8     0
   0.45901     0.83106     0.00000     0.00000     0.00000       8     8     0
   0.49204     0.83106     0.00000     0.00000     0.00000       8     8     0
   0.50000     0.83106     0.00000    -0.00000     0.00000       8     8     0
   0.00000     0.90334    -0.00000     0.00000    -0.00000       8     8     0
   0.00796     0.90334    -0.00000     0.00000    -0.00000       8     8     0
   0.04099     0.90334     0.00000     0.00000     0.00000       8     8     0
   0.09666     0.90334    -0.00000    -0.00000    -0.00000       8     8     0
   0.16894     0.90334    -0.00000    -0.00000    -0.00000       8     8     0
   0.25000     0.90334     0.00000     0.00000     0.00000       8     8     0
   0.33106     0.90334     0.00000    -0.00000     0.00000       8     8     0
   0.40334     0.90334     0.00000     0.00000     0.00000       8     8     0
   0.45901     0.90334    -0.00000    -0.00000     0.00000       8     8     0
   0.49204     0.90334    -0.00000    -0.00000    -0.00000       8     8     0
   0.50000     0.90334    -0.00000     0.00000    -0.00000       8     8     0
   0.00000     0.95901     0.00000     0.00000     0.00000       8     8     0
   0.00796     0.95901    -0.00000     0.00000    -0.00000       8     8     0
   0.04099     0.95901    -0.00001    -0.00000    -0.00001       8     8     0
   0.09666     0.95901    -0.00000     0.00000    -0.00000       8     8     0
   0.16894     0.95901     0.00000     0.00000     0.00000       8     8     0
   0.25000     0.95901     0.00000    -0.00000     0.00000       8     8     0
   0.33106     0.95901    -0.00000    -0.00000    -0.00000       8     8     0
   0.40334     0.95901    -0.00000     0.00000    -0.00000       8     8     0
   0.45901     0.95901    -0.00000    -0.00000    -0.00000       8     8     0
   0.49204     0.95901     0.00000     0.00000     0.00000       8     8     0
   0.50000     0.95901     0.00000     0.00000     0.00000       8     8     0
   0.00000     0.99204     0.00001    -0.00001     0.00001       8     8     0
   0.00796     0.99204     0.00001    -0.00001     0.00001       8     8     0
   0.04099     0.99204     0.00002    -0.00000     0.00002       8     8     0
   0.09666     0.99204     0.00002     0.00000     0.00002       8     8     0
   0.16894     0.99204    -0.00000    -0.00000    -0.00000       8     8     0
   0.25000     0.99204    -0.00000    -0.00000    -0.00000       8     8     0
   0.33106     0.99204     0.00000     0.00000     0.00000       8     8     0
   0.40334     0.99204    -0.00000    -0.00000    -0.00000       8     8     0
   0.45901     0.99204     0.00000     0.00000     0.00000       8     8     0
   0.49204     0.99204    -0.00000    -0.00000    -0.00000       8     8     0
   0.50000     0.99204    -0.00000    -0.00000    -0.00000       8     8     0
   0.00000     1.00000     0.00000     0.00000    -0.00000       8     8     0
   0.00796     1.00000     0.00001     0.00000     0.00000       8     8     0
   0.04099     1.00000     0.00002     0.00000     0.00002       8     8     0
   0.09666     1.00000     0.00001     0.00000     0.00001       8     8     0
   0.16894     1.00000    -0.00001    -0.00000    -0.00001       8     8     0
   0.25000     1.00000    -0.00000     0.00000    -0.00000       8     8     0
   0.33106     1.00000     0.00000     0.00000     0.00000       8     8     0
   0.40334     1.00000     0.00000    -0.00000    -0.00000       8     8     0
   0.45901     1.00000     0.00000     0.00000     0.00000       8     8     0
   0.49204     1.00000    -0.00000    -0.00000    -0.00000       8     8     0
   0.50000     1.00000    -0.00000    -0.00000    -0.00000       8     8     0
ZONE T= "IEL     3",  I=11,  J=11,  SOLUTIONTIME=   0.10020,  DATAPACKING = POINT
   0.50000     0.50000     0.00001     0.00000     0.00000       8     8     0
   0.50796     0.50000     0.00000     0.00000    -0.00000       8     8     0
   0.54099     0.50000    -0.00001    -0.00000    -0.00000       8     8     0
   0.59666     0.50000     0.00000     0.00000     0.00000       8     8     0
   0.66894     0.50000    -0.00000    -0.00000    -0.00000       8     8     0
   0.75000     0.50000     0.00000     0.00000     0.00000       8     8     0
   0.83106     0.50000    -0.00000    -0.00000    -0.00000       8     8     0
   0.90334     0.50000     0.00000    -0.00000     0.00000       8     8     0
   0.95901     0.50000     0.00000     0.00000     0.00000       8     8     0
   0.99204     0.50000    -0.00000    -0.00000    -0.00000       8     8     0
   1.00000     0.50000    -0.00000    -0.00000    -0.00000       8     8     0
   0.50000     0.50796     0.00000    -0.00000     0.00000       8     8     0
   0.50796     0.50796    -0.00000    -0.00000    -0.00000       8     8     0
   0.54099     0.50796    -0.00000    -0.00000    -0.00000       8     8     0
   0.59666     0.50796     0.00000     0.00000     0.00000       8     8     0
   0.66894     0.50796    -0.00000    -0.00000    -0.00000       8     8     0
   0.75000     0.50796     0.00000     0.00000     0.00000       8     8     0
   0.83106     0.50796    -0.00000    -0.00000    -0.00000       8     8     0
   0.90334     0.50796     0.00000     0.00000     0.00000       8     8     0
   0.95901     0.50796     0.00000     0.00000     0.00000       8     8     0
   0.99204     0.50796    -0.00000    -0.00000    -0.00000       8     8     0
   1.00000     0.50796    -0.00000    -0.00000    -0.00000       8     8     0
   0.50000     0.54099    -0.00001    -0.00000    -0.00000       8     8     0
   0.50796     0.54099    -0.00000    -0.00000    -0.00000       8     8     0
   0.54099     0.54099     0.00000     0.00000     0.00000       8     8     0
   0.59666     0.54099    -0.00000     0.00000    -0.00000       8     8     0
   0.66894     0.54099    -0.00000    -0.00000     0.00000       8     8     0
   0.75000     0.54099     0.00000     0.00000     0.00000       8     8     0
   0.83106     0.54099    -0.00000    -0.00000    -0.00000       8     8     0
   0.90334     0.54099     0.00000     0.00000     0.00000       8     8     0
   0.95901     0.54099    -0.00000    -0.00000    -0.00000       8     8     0
   0.99204     0.54099     0.00000     0.00000     0.00000       8     8     0
   1.00000     0.54099     0.00000     0.00000     0.00000       8     8     0
   0.50000     0.59666     0.00000     0.00000     0.00000       8     8     0
   0.50796     0.59666     0.00000     0.00000     0.00000       8     8     0
   0.54099     0.59666    -0.00000    -0.00000     0.00000       8     8     0
   0.59666     0.59666    -0.00000    -0.00000    -0.00000       8     8     0
   0.66894     0.59666     0.00000     0.00000     0.00000       8     8     0
   0.75000     0.59666    -0.00000    -0.00000    -0.00000       8     8     0
   0.83106     0.59666     0.00000     0.00000     0.00000       8     8     0
   0.90334     0.59666    -0.00000    -0.00000    -0.00000       8     8     0
   0.95901     0.59666     0.00000     0.00000     0.00000       8     8     0
   0.99204     0.59666     0.00000    -0.00000     0.00000       8     8     0
   1.00000     0.59666    -0.00000    -0.00000    -0.00000       8     8     0
   0.50000     0.66894    -0.00000    -0.00000    -0.00000       8     8     0
   0.50796     0.66894    -0.00000    -0.00000    -0.00000       8     8     0
   0.54099     0.66894    -0.00000     0.00000    -0.00000       8     8     0
   0.59666     0.66894     0.00000     0.00000     0.00000       8     8     0
   0.66894     0.66894    -0.00000    -0.00000    -0.00000       8     8     0
   0.75000     0.66894     0.00000     0.00000     0.00000       8     8     0
   0.83106     0.66894    -0.00000    -0.00000    -0.00000       8     8     0
   0.90334     0.66894     0.00000     0.00000     0.00000       8     8     0
   0.95901     0.66894    -0.00000    -0.00000    -0.00000       8     8     0
   0.99204     0.66894    -0.00000    -0.00000    -0.00000       8     8     0
   1.00000     0.66894     0.00000     0.00000     0.00000       8     8     0
   0.50000     0.75000     0.00000     0.00000     0.00000       8     8     0
   0.50796     0.75000     0.00000     0.00000     0.00000       8     8     0
   0.54099     0.75000     0.00000     0.00000     0.00000       8     8     0
   0.59666     0.75000    -0.00000    -0.00000    -0.00000       8     8     0
   0.66894     0.75000     0.00000     0.00000     0.00000       8     8     0
   0.75000     0.75000    -0.00000    -0.00000    -0.00000       8     8     0
   0.83106     0.75000     0.00000     0.00000     0.00000       8     8     0
   0.90334     0.75000    -0.00000    -0.00000    -0.00000       8     8     0
   0.95901     0.75000     0.00000     0.00000     0.00000       8     8     0
   0.99204     0.75000     0.00000     0.00000     0.00000       8     8     0
   1.00000     0.75000    -0.00000    -0.00000    -0.00000       8     8     0
   0.50000     0.83106    -0.00000    -0.00000    -0.00000       8     8     0
   0.50796     0.83106    -0.00000    -0.00000    -0.00000       8     8     0
   0.54099     0.83106    -0.00000    -0.00000    -0.00000       8     8     0
   0.59666     0.83106     0.00000     0.00000     0.00000       8     8     0
   0.66894     0.83106    -0.00000    -0.00000    -0.00000       8     8     0
   0.75000     0.83106     0.00000     0.00000     0.00000       8     8     0
   0.83106     0.83106    -0.00000    -0.00000    -0.00000       8     8     0
   0.90334     0.83106     0.00000     0.00000     0.00000       8     8     0
   0.95901     0.83106    -0.00000    -0.00000    -0.00000       8     8     0
   0.99204     0.83106    -0.00000    -0.00000    -0.00000       8     8     0
   1.00000     0.83106     0.00000     0.00000     0.00000       8     8     0
   0.50000     0.90334     0.00000     0.00000    -0.00000       8     8     0
   0.50796     0.90334     0.00000     0.00000     0.00000       8     8     0
   0.54099     0.90334     0.00000     0.00000     0.00000       8     8     0
   0.59666     0.90334    -0.00000    -0.00000    -0.00000       8     8     0
   0.66894     0.90334     0.00000     0.00000     0.00000       8     8     0
   0.75000     0.90334    -0.00000    -0.00000    -0.00000       8     8     0
   0.83106     0.90334     0.00000     0.00000     0.00000       8     8     0
   0.90334     0.90334    -0.00000    -0.00000    -0.00000       8     8     0
   0.95901     0.90334     0.00000     0.00000    -0.00000       8     8     0
   0.99204     0.90334     0.00000     0.00000     0.00000       8     8     0
   1.00000     0.90334    -0.00000    -0.00000     0.00000       8     8     0
   0.50000     0.95901     0.00000     0.00000     0.00000       8     8     0
   0.50796     0.95901     0.00000     0.00000     0.00000       8     8     0
   0.54099     0.95901    -0.00000    -0.00000    -0.00000       8     8     0
   0.59666     0.95901     0.00000     0.00000     0.00000       8     8     0
   0.66894     0.95901    -0.00000    -0.00000    -0.00000       8     8     0
   0.75000     0.95901     0.00000     0.00000     0.00000       8     8     0
   0.83106     0.95901    -0.00000    -0.00000    -0.00000       8     8     0
   0.90334     0.95901     0.00000    -0.00000     0.00000       8     8     0
   0.95901     0.95901     0.00000     0.00000     0.00000       8     8     0
   0.99204     0.95901    -0.00000    -0.00000    -0.00000       8     8     0
   1.00000     0.95901    -0.00000    -0.00000    -0.00000       8     8     0
   0.50000     0.99204    -0.00000    -0.00000    -0.00000       8     8     0
   0.50796     0.99204    -0.00000    -0.00000    -0.00000       8     8     0
   0.54099     0.99204     0.00000     0.00000     0.00000       8     8     0
   0.59666     0.99204     0.00000     0.00000    -0.00000       8     8     0
   0.66894     0.99204    -0.00000    -0.00000    -0.00000       8     8     0
   0.75000     0.99204     0.00000     0.00000     0.00000       8     8     0
   0.83106     0.99204    -0.00000    -0.00000    -0.00000       8     8     0
   0.90334     0.99204     0.00000     0.00000     0.00000       8     8     0
   0.95901     0.99204    -0.00000    -0.00000    -0.00000       8     8     0
   0.99204     0.99204    -0.00000     0.00000     0.00000       8     8     0
   1.00000     0.99204     0.00000     0.00000     0.00000       8     8     0
   0.50000     1.00000    -0.00000    -0.00000    -0.00000       8     8     0
   0.50796     1.00000    -0.00000    -0.00000    -0.00000       8     8     0
   0.54099     1.00000     0.00000     0.00000     0.00000       8     8     0
   0.59666     1.00000    -0.00000    -0.00000    -0.00000       8     8     0
   0.66894     1.00000     0.00000     0.00000     0.00000       8     8     0
   0.75000     1.00000    -0.00000    -0.00000    -0.00000       8     8     0
   0.83106     1.00000     0.00000     0.00000     0.00000       8     8     0
   0.90334     1.00000    -0.00000     0.00000    -0.00000       8     8     0
   0.95901     1.00000    -0.00000    -0.00000    -0.00000       8     8     0
   0.99204     1.00000     0.00000     0.00000     0.00000       8     8     0
   1.00000     1.00000     0.00000     0.00000     0.00000       8     8     0
ZONE T= "IEL     4",  I=11,  J=11,  SOLUTIONTIME=   0.10020,  DATAPACKING = POINT
   0.50000     0.00000     0.01188     0.00865     0.00823       8     8     0
   0.50796     0.00000     0.00973     0.00704     0.00670       8     8     0
   0.54099     0.00000     0.00402     0.00285     0.00277       8     8     0
   0.59666     0.00000     0.00074     0.00052     0.00055       8     8     0
   0.66894     0.00000     0.00008     0.00005     0.00004       8     8     0
   0.75000     0.00000    -0.00000    -0.00000     0.00000       8     8     0
   0.83106     0.00000     0.00001     0.00001    -0.00000       8     8     0
   0.90334     0.00000    -0.00000    -0.00000     0.00000       8     8     0
   0.95901     0.00000     0.00000     0.00000     0.00000       8     8     0
   0.99204     0.00000     0.00001     0.00001    -0.00001       8     8     0
   1.00000     0.00000     0.00000    -0.00000     0.00000       8     8     0