TITLE = "MESH AND SOLUTIONS"
VARIABLES = "X", "Y", "PRESSURE", "U", "V",  "N", "M", "PROC"
ZONE T= "IEL     1",  I= 7,  J= 7,  SOLUTIONTIME=   0.00000,  DATAPACKING = POINT
   0.00000     0.00000     0.99961     0.70683     0.70683       4     4     0
   0.00586     0.00000     0.99860     0.70612     0.70612       4     4     0
   0.02885     0.00000     0.97136     0.68685     0.68685       4     4     0
   0.06250     0.00000     0.87323     0.61746     0.61746       4     4     0
   0.09615     0.00000     0.72579     0.51321     0.51321       4     4     0
   0.11914     0.00000     0.61148     0.43238     0.43238       4     4     0
   0.12500     0.00000     0.58212     0.41162     0.41162       4     4     0
   0.00000     0.00586     0.99860     0.70612     0.70612       4     4     0
   0.00586     0.00586     0.99524     0.70374     0.70374       4     4     0
   0.02885     0.00586     0.95911     0.67819     0.67819       4     4     0
   0.06250     0.00586     0.85046     0.60137     0.60137       4     4     0
   0.09615     0.00586     0.69719     0.49298     0.49298       4     4     0
   0.11914     0.00586     0.58186     0.41144     0.41144       4     4     0
   0.12500     0.00586     0.55260     0.39075     0.39075       4     4     0
   0.00000     0.02885     0.97136     0.68685     0.68685       4     4     0
   0.00586     0.02885     0.95911     0.67819     0.67819       4     4     0
   0.02885     0.02885     0.89105     0.63007     0.63007       4     4     0
   0.06250     0.02885     0.74888     0.52954     0.52954       4     4     0
   0.09615     0.02885     0.58186     0.41144     0.41144       4     4     0
   0.11914     0.02885     0.46816     0.33104     0.33104       4     4     0
   0.12500     0.02885     0.44049     0.31148     0.31148       4     4     0
   0.00000     0.06250     0.87323     0.61746     0.61746       4     4     0
   0.00586     0.06250     0.85046     0.60137     0.60137       4     4     0
   0.02885     0.06250     0.74888     0.52954     0.52954       4     4     0
   0.06250     0.06250     0.58186     0.41144     0.41144       4     4     0
   0.09615     0.06250     0.41796     0.29554     0.29554       4     4     0
   0.11914     0.06250     0.31873     0.22538     0.22538       4     4     0
   0.12500     0.06250     0.29579     0.20915     0.20915       4     4     0
   0.00000     0.09615     0.72579     0.51321     0.51321       4     4     0
   0.00586     0.09615     0.69719     0.49298     0.49298       4     4     0
   0.02885     0.09615     0.58186     0.41144     0.41144       4     4     0
   0.06250     0.09615     0.41796     0.29554     0.29554       4     4     0
   0.09615     0.09615     0.27756     0.19626     0.19626       4     4     0
   0.11914     0.09615     0.20061     0.14186     0.14186       4     4     0
   0.12500     0.09615     0.18357     0.12981     0.12981       4     4     0
   0.00000     0.11914     0.61148     0.43238     0.43238       4     4     0
   0.00586     0.11914     0.58186     0.41144     0.41144       4     4     0
   0.02885     0.11914     0.46816     0.33104     0.33104       4     4     0
   0.06250     0.11914     0.31873     0.22538     0.22538       4     4     0
   0.09615     0.11914     0.20061     0.14186     0.14186       4     4     0
   0.11914     0.11914     0.13979     0.09884     0.09884       4     4     0
   0.12500     0.11914     0.12667     0.08957     0.08957       4     4     0
   0.00000     0.12500     0.58212     0.41162     0.41162       4     4     0
   0.00586     0.12500     0.55260     0.39075     0.39075       4     4     0
   0.02885     0.12500     0.44049     0.31148     0.31148       4     4     0
   0.06250     0.12500     0.29579     0.20915     0.20915       4     4     0
   0.09615     0.12500     0.18357     0.12981     0.12981       4     4     0
   0.11914     0.12500     0.12667     0.08957     0.08957       4     4     0
   0.12500     0.12500     0.11448     0.08095     0.08095       4     4     0
ZONE T= "IEL     2",  I= 7,  J= 7,  SOLUTIONTIME=   0.00000,  DATAPACKING = POINT
   0.12500     0.00000     0.58193     0.41149     0.41149       4     4     0
   0.13086     0.00000     0.55243     0.39063     0.39063       4     4     0
   0.15385     0.00000     0.44039     0.31140     0.31140       4     4     0
   0.18750     0.00000     0.29579     0.20916     0.20916       4     4     0
   0.22115     0.00000     0.18366     0.12986     0.12986       4     4     0
   0.24414     0.00000     0.12678     0.08964     0.08964       4     4     0
   0.25000     0.00000     0.11459     0.08103     0.08103       4     4     0
   0.12500     0.00586     0.55243     0.39063     0.39063       4     4     0
   0.13086     0.00586     0.52314     0.36992     0.36992       4     4     0
   0.15385     0.00586     0.41312     0.29212     0.29212       4     4     0
   0.18750     0.00586     0.27367     0.19352     0.19352       4     4     0
   0.22115     0.00586     0.16761     0.11851     0.11851       4     4     0
   0.24414     0.00586     0.11463     0.08105     0.08105       4     4     0
   0.25000     0.00586     0.10335     0.07308     0.07308       4     4     0
   0.12500     0.02885     0.44039     0.31140     0.31140       4     4     0
   0.13086     0.02885     0.41312     0.29212     0.29212       4     4     0
   0.15385     0.02885     0.31451     0.22239     0.22239       4     4     0
   0.18750     0.02885     0.19747     0.13963     0.13963       4     4     0
   0.22115     0.02885     0.11463     0.08105     0.08105       4     4     0
   0.24414     0.02885     0.07557     0.05344     0.05344       4     4     0
   0.25000     0.02885     0.06746     0.04770     0.04770       4     4     0
   0.12500     0.06250     0.29579     0.20916     0.20916       4     4     0
   0.13086     0.06250     0.27367     0.19352     0.19352       4     4     0
   0.15385     0.06250     0.19747     0.13963     0.13963       4     4     0
   0.18750     0.06250     0.11463     0.08105     0.08105       4     4     0
   0.22115     0.06250     0.06151     0.04350     0.04350       4     4     0
   0.24414     0.06250     0.03844     0.02718     0.02718       4     4     0
   0.25000     0.06250     0.03381     0.02391     0.02391       4     4     0
   0.12500     0.09615     0.18366     0.12986     0.12986       4     4     0
   0.13086     0.09615     0.16761     0.11851     0.11851       4     4     0
   0.15385     0.09615     0.11463     0.08105     0.08105       4     4     0
   0.18750     0.09615     0.06151     0.04350     0.04350       4     4     0
   0.22115     0.09615     0.03052     0.02158     0.02158       4     4     0
   0.24414     0.09615     0.01807     0.01278     0.01278       4     4     0
   0.25000     0.09615     0.01568     0.01108     0.01108       4     4     0
   0.12500     0.11914     0.12678     0.08964     0.08964       4     4     0
   0.13086     0.11914     0.11463     0.08105     0.08105       4     4     0
   0.15385     0.11914     0.07557     0.05344     0.05344       4     4     0
   0.18750     0.11914     0.03844     0.02718     0.02718       4     4     0
   0.22115     0.11914     0.01807     0.01278     0.01278       4     4     0
   0.24414     0.11914     0.01032     0.00730     0.00730       4     4     0
   0.25000     0.11914     0.00887     0.00627     0.00627       4     4     0
   0.12500     0.12500     0.11459     0.08103     0.08103       4     4     0
   0.13086     0.12500     0.10335     0.07308     0.07308       4     4     0
   0.15385     0.12500     0.06746     0.04770     0.04770       4     4     0
   0.18750     0.12500     0.03381     0.02391     0.02391       4     4     0
   0.22115     0.12500     0.01568     0.01108     0.01108       4     4     0
   0.24414     0.12500     0.00887     0.00627     0.00627       4     4     0
   0.25000     0.12500     0.00761     0.00538     0.00538       4     4     0
ZONE T= "IEL     3",  I= 7,  J= 7,  SOLUTIONTIME=   0.00000,  DATAPACKING = POINT
   0.12500     0.12500     0.11470     0.08110     0.08110       4     4     0
   0.13086     0.12500     0.10346     0.07316     0.07316       4     4     0
   0.15385     0.12500     0.06757     0.04778     0.04778       4     4     0
   0.18750     0.12500     0.03389     0.02396     0.02396       4     4     0
   0.22115     0.12500     0.01571     0.01111     0.01111       4     4     0
   0.24414     0.12500     0.00888     0.00628     0.00628       4     4     0
   0.25000     0.12500     0.00762     0.00539     0.00539       4     4     0
   0.12500     0.13086     0.10346     0.07316     0.07316       4     4     0
   0.13086     0.13086     0.09310     0.06583     0.06583       4     4     0
   0.15385     0.13086     0.06025     0.04260     0.04260       4     4     0
   0.18750     0.13086     0.02982     0.02108     0.02108       4     4     0
   0.22115     0.13086     0.01364     0.00965     0.00965       4     4     0
   0.24414     0.13086     0.00765     0.00541     0.00541       4     4     0
   0.25000     0.13086     0.00654     0.00463     0.00463       4     4     0
   0.12500     0.15385     0.06757     0.04778     0.04778       4     4     0
   0.13086     0.15385     0.06025     0.04260     0.04260       4     4     0
   0.15385     0.15385     0.03759     0.02658     0.02658       4     4     0
   0.18750     0.15385     0.01763     0.01247     0.01247       4     4     0
   0.22115     0.15385     0.00765     0.00541     0.00541       4     4     0
   0.24414     0.15385     0.00413     0.00292     0.00292       4     4     0
   0.25000     0.15385     0.00351     0.00248     0.00248       4     4     0
   0.12500     0.18750     0.03389     0.02396     0.02396       4     4     0
   0.13086     0.18750     0.02982     0.02108     0.02108       4     4     0
   0.15385     0.18750     0.01763     0.01247     0.01247       4     4     0
   0.18750     0.18750     0.00765     0.00541     0.00541       4     4     0
   0.22115     0.18750     0.00306     0.00217     0.00217       4     4     0
   0.24414     0.18750     0.00157     0.00111     0.00111       4     4     0
   0.25000     0.18750     0.00133     0.00094     0.00094       4     4     0
   0.12500     0.22115     0.01571     0.01111     0.01111       4     4     0
   0.13086     0.22115     0.01364     0.00965     0.00965       4     4     0
   0.15385     0.22115     0.00765     0.00541     0.00541       4     4     0
   0.18750     0.22115     0.00306     0.00217     0.00217       4     4     0
   0.22115     0.22115     0.00114     0.00080     0.00080       4     4     0
   0.24414     0.22115     0.00055     0.00039     0.00039       4     4     0
   0.25000     0.22115     0.00047     0.00033     0.00033       4     4     0
   0.12500     0.24414     0.00888     0.00628     0.00628       4     4     0
   0.13086     0.24414     0.00765     0.00541     0.00541       4     4     0
   0.15385     0.24414     0.00413     0.00292     0.00292       4     4     0
   0.18750     0.24414     0.00157     0.00111     0.00111       4     4     0
   0.22115     0.24414     0.00055     0.00039     0.00039       4     4     0
   0.24414     0.24414     0.00026     0.00018     0.00018       4     4     0
   0.25000     0.24414     0.00022     0.00016     0.00016       4     4     0
   0.12500     0.25000     0.00762     0.00539     0.00539       4     4     0
   0.13086     0.25000     0.00654     0.00463     0.00463       4     4     0
   0.15385     0.25000     0.00351     0.00248     0.00248       4     4     0
   0.18750     0.25000     0.00133     0.00094     0.00094       4     4     0
   0.22115     0.25000     0.00047     0.00033     0.00033       4     4     0
   0.24414     0.25000     0.00022     0.00016     0.00016       4     4     0
   0.25000     0.25000     0.00019     0.00014     0.00014       4     4     0
ZONE T= "IEL     4",  I= 7,  J= 7,  SOLUTIONTIME=   0.00000,  DATAPACKING = POINT
   0.00000     0.12500     0.58193     0.41149     0.41149       4     4     0
   0.00586     0.12500     0.55243     0.39063     0.39063       4     4     0
   0.02885     0.12500     0.44039     0.31140     0.31140       4     4     0
   0.06250     0.12500     0.29579     0.20916     0.20916       4     4     0
   0.09615     0.12500     0.18366     0.12986     0.12986       4     4     0
   0.11914     0.12500     0.12678     0.08964     0.08964       4     4     0
   0.12500     0.12500     0.11459     0.08103     0.08103       4     4     0
   0.00000     0.13086     0.55243     0.39063     0.39063       4     4     0
   0.00586     0.13086     0.52314     0.36992     0.36992       4     4     0
   0.02885     0.13086     0.41312     0.29212     0.29212       4     4     0
   0.06250     0.13086     0.27367     0.19352     0.19352       4     4     0
   0.09615     0.13086     0.16761     0.11851     0.11851       4     4     0
   0.11914     0.13086     0.11463     0.08105     0.08105       4     4     0
   0.12500     0.13086     0.10335     0.07308     0.07308       4     4     0
   0.00000     0.15385     0.44039     0.31140     0.31140       4     4     0
   0.00586     0.15385     0.41312     0.29212     0.29212       4     4     0
   0.02885     0.15385     0.31451     0.22239     0.22239       4     4     0
   0.06250     0.15385     0.19747     0.13963     0.13963       4     4     0
   0.09615     0.15385     0.11463     0.08105     0.08105       4     4     0
   0.11914     0.15385     0.07557     0.05344     0.05344       4     4     0
   0.12500     0.15385     0.06746     0.04770     0.04770       4     4     0
   0.00000     0.18750     0.29579     0.20916     0.20916       4     4     0
   0.00586     0.18750     0.27367     0.19352     0.19352       4     4     0
   0.02885     0.18750     0.19747     0.13963     0.13963       4     4     0
   0.06250     0.18750     0.11463     0.08105     0.08105       4     4     0
   0.09615     0.18750     0.06151     0.04350     0.04350       4     4     0
   0.11914     0.18750     0.03844     0.02718     0.02718       4     4     0
   0.12500     0.18750     0.03381     0.02391     0.02391       4     4     0
   0.00000     0.22115     0.18366     0.12986     0.12986       4     4     0
   0.00586     0.22115     0.16761     0.11851     0.11851       4     4     0
   0.02885     0.22115     0.11463     0.08105     0.08105       4     4     0
   0.06250     0.22115     0.06151     0.04350     0.04350       4     4     0
   0.09615     0.22115     0.03052     0.02158     0.02158       4     4     0
   0.11914     0.22115     0.01807     0.01278     0.01278       4     4     0
   0.12500     0.22115     0.01568     0.01108     0.01108       4     4     0
   0.00000     0.24414     0.12678     0.08964     0.08964       4     4     0
   0.00586     0.24414     0.11463     0.08105     0.08105       4     4     0
   0.02885     0.24414     0.07557     0.05344     0.05344       4     4     0
   0.06250     0.24414     0.03844     0.02718     0.02718       4     4     0
   0.09615     0.24414     0.01807     0.01278     0.01278       4     4     0
   0.11914     0.24414     0.01032     0.00730     0.00730       4     4     0
   0.12500     0.24414     0.00887     0.00627     0.00627       4     4     0
   0.00000     0.25000     0.11459     0.08103     0.08103       4     4     0
   0.00586     0.25000     0.10335     0.07308     0.07308       4     4     0
   0.02885     0.25000     0.06746     0.04770     0.04770       4     4     0
   0.06250     0.25000     0.03381     0.02391     0.02391       4     4     0
   0.09615     0.25000     0.01568     0.01108     0.01108       4     4     0
   0.11914     0.25000     0.00887     0.00627     0.00627       4     4     0
   0.12500     0.25000     0.00761     0.00538     0.00538       4     4     0
ZONE T= "IEL     5",  I= 7,  J= 7,  SOLUTIONTIME=   0.00000,  DATAPACKING = POINT
   0.00000     0.25000     0.11470     0.08110     0.08110       4     4     0
   0.00586     0.25000     0.10346     0.07316     0.07316       4     4     0
   0.02885     0.25000     0.06757     0.04778     0.04778       4     4     0
   0.06250     0.25000     0.03389     0.02396     0.02396       4     4     0
   0.09615     0.25000     0.01571     0.01111     0.01111       4     4     0
   0.11914     0.25000     0.00888     0.00628     0.00628       4     4     0
   0.12500     0.25000     0.00762     0.00539     0.00539       4     4     0
   0.00000     0.25586     0.10346     0.07316     0.07316       4     4     0
   0.00586     0.25586     0.09310     0.06583     0.06583       4     4     0
   0.02885     0.25586     0.06025     0.04260     0.04260       4     4     0
   0.06250     0.25586     0.02982     0.02108     0.02108       4     4     0
   0.09615     0.25586     0.01364     0.00965     0.00965       4     4     0
   0.11914     0.25586     0.00765     0.00541     0.00541       4     4     0
   0.12500     0.25586     0.00654     0.00463     0.00463       4     4     0
   0.00000     0.27885     0.06757     0.04778     0.04778       4     4     0
   0.00586     0.27885     0.06025     0.04260     0.04260       4     4     0
   0.02885     0.27885     0.03759     0.02658     0.02658       4     4     0
   0.06250     0.27885     0.01763     0.01247     0.01247       4     4     0
   0.09615     0.27885     0.00765     0.00541     0.00541       4     4     0
   0.11914     0.27885     0.00413     0.00292     0.00292       4     4     0
   0.12500     0.27885     0.00351     0.00248     0.00248       4     4     0
   0.00000     0.31250     0.03389     0.02396     0.02396       4     4     0
   0.00586     0.31250     0.02982     0.02108     0.02108       4     4     0
   0.02885     0.31250     0.01763     0.01247     0.01247       4     4     0
   0.06250     0.31250     0.00765     0.00541     0.00541       4     4     0
   0.09615     0.31250     0.00306     0.00217     0.00217       4     4     0
   0.11914     0.31250     0.00157     0.00111     0.00111       4     4     0
   0.12500     0.31250     0.00133     0.00094     0.00094       4     4     0
   0.00000     0.34615     0.01571     0.01111     0.01111       4     4     0
   0.00586     0.34615     0.01364     0.00965     0.00965       4     4     0
   0.02885     0.34615     0.00765     0.00541     0.00541       4     4     0
   0.06250     0.34615     0.00306     0.00217     0.00217       4     4     0
   0.09615     0.34615     0.00114     0.00080     0.00080       4     4     0
   0.11914     0.34615     0.00055     0.00039     0.00039       4     4     0
   0.12500     0.34615     0.00047     0.00033     0.00033       4     4     0
   0.00000     0.36914     0.00888     0.00628     0.00628       4     4     0
   0.00586     0.36914     0.00765     0.00541     0.00541       4     4     0
   0.02885     0.36914     0.00413     0.00292     0.00292       4     4     0
   0.06250     0.36914     0.00157     0.00111     0.00111       4     4     0
   0.09615     0.36914     0.00055     0.00039     0.00039       4     4     0
   0.11914     0.36914     0.00026     0.00018     0.00018       4     4     0
   0.12500     0.36914     0.00022     0.00016     0.00016       4     4     0
   0.00000     0.37500     0.00762     0.00539     0.00539       4     4     0
   0.00586     0.37500     0.00654     0.00463     0.00463       4     4     0
   0.02885     0.37500     0.00351     0.00248     0.00248       4     4     0
   0.06250     0.37500     0.00133     0.00094     0.00094       4     4     0
   0.09615     0.37500     0.00047     0.00033     0.00033       4     4     0
   0.11914     0.37500     0.00022     0.00016     0.00016       4     4     0
   0.12500     0.37500     0.00019     0.00014     0.00014       4     4     0
ZONE T= "IEL     6",  I= 7,  J= 7,  SOLUTIONTIME=   0.00000,  DATAPACKING = POINT
   0.00000     0.37500     0.00762     0.00539     0.00539       4     4     0
   0.00586     0.37500     0.00654     0.00463     0.00463       4     4     0
   0.02885     0.37500     0.00350     0.00248     0.00248       4     4     0
   0.06250     0.37500     0.00131     0.00093     0.00093       4     4     0
   0.09615     0.37500     0.00045     0.00032     0.00032       4     4     0
   0.11914     0.37500     0.00021     0.00015     0.00015       4     4     0
   0.12500     0.37500     0.00018     0.00013     0.00013       4     4     0
   0.00000     0.38086     0.00654     0.00463     0.00463       4     4     0
   0.00586     0.38086     0.00561     0.00397     0.00397       4     4     0
   0.02885     0.38086     0.00297     0.00210     0.00210       4     4     0
   0.06250     0.38086     0.00110     0.00078     0.00078       4     4     0
   0.09615     0.38086     0.00038     0.00027     0.00027       4     4     0
   0.11914     0.38086     0.00017     0.00012     0.00012       4     4     0
   0.12500     0.38086     0.00015     0.00011     0.00011       4     4     0
   0.00000     0.40385     0.00350     0.00248     0.00248       4     4     0
   0.00586     0.40385     0.00297     0.00210     0.00210       4     4     0
   0.02885     0.40385     0.00152     0.00108     0.00108       4     4     0
   0.06250     0.40385     0.00053     0.00038     0.00038       4     4     0
   0.09615     0.40385     0.00017     0.00012     0.00012       4     4     0
   0.11914     0.40385     0.00008     0.00005     0.00005       4     4     0
   0.12500     0.40385     0.00007     0.00005     0.00005       4     4     0
   0.00000     0.43750     0.00131     0.00093     0.00093       4     4     0
   0.00586     0.43750     0.00110     0.00078     0.00078       4     4     0
   0.02885     0.43750     0.00053     0.00038     0.00038       4     4     0
   0.06250     0.43750     0.00017     0.00012     0.00012       4     4     0
   0.09615     0.43750     0.00005     0.00004     0.00004       4     4     0
   0.11914     0.43750     0.00002     0.00002     0.00002       4     4     0
   0.12500     0.43750     0.00002     0.00001     0.00001       4     4     0
   0.00000     0.47115     0.00045     0.00032     0.00032       4     4     0
   0.00586     0.47115     0.00038     0.00027     0.00027       4     4     0
   0.02885     0.47115     0.00017     0.00012     0.00012       4     4     0
   0.06250     0.47115     0.00005     0.00004     0.00004       4     4     0
   0.09615     0.47115     0.00001     0.00001     0.00001       4     4     0
   0.11914     0.47115     0.00001     0.00000     0.00000       4     4     0
   0.12500     0.47115     0.00001     0.00000     0.00000       4     4     0
   0.00000     0.49414     0.00021     0.00015     0.00015       4     4     0
   0.00586     0.49414     0.00017     0.00012     0.00012       4     4     0
   0.02885     0.49414     0.00008     0.00005     0.00005       4     4     0
   0.06250     0.49414     0.00002     0.00002     0.00002       4     4     0
   0.09615     0.49414     0.00001     0.00000     0.00000       4     4     0
   0.11914     0.49414     0.00000     0.00000     0.00000       4     4     0
   0.12500     0.49414     0.00000     0.00000     0.00000       4     4     0
   0.00000     0.50000     0.00018     0.00013     0.00013       4     4     0
   0.00586     0.50000     0.00015     0.00011     0.00011       4     4     0
   0.02885     0.50000     0.00007     0.00005     0.00005       4     4     0
   0.06250     0.50000     0.00002     0.00001     0.00001       4     4     0
   0.09615     0.50000     0.00001     0.00000     0.00000       4     4     0
   0.11914     0.50000     0.00000     0.00000     0.00000       4     4     0
   0.12500     0.50000     0.00000     0.00000     0.00000       4     4     0
ZONE T= "IEL     7",  I= 7,  J= 7,  SOLUTIONTIME=   0.00000,  DATAPACKING = POINT
   0.12500     0.37500     0.00017     0.00012     0.00012       4     4     0
   0.13086     0.37500     0.00014     0.00010     0.00010       4     4     0
   0.15385     0.37500     0.00006     0.00004     0.00004       4     4     0
   0.18750     0.37500     0.00002     0.00001     0.00001       4     4     0
   0.22115     0.37500     0.00000     0.00000     0.00000       4     4     0
   0.24414     0.37500     0.00000     0.00000     0.00000       4     4     0
   0.25000     0.37500     0.00000     0.00000     0.00000       4     4     0
   0.12500     0.38086     0.00014     0.00010     0.00010       4     4     0
   0.13086     0.38086     0.00011     0.00008     0.00008       4     4     0
   0.15385     0.38086     0.00005     0.00004     0.00004       4     4     0
   0.18750     0.38086     0.00001     0.00001     0.00001       4     4     0
   0.22115     0.38086     0.00000     0.00000     0.00000       4     4     0
   0.24414     0.38086     0.00000     0.00000     0.00000       4     4     0
   0.25000     0.38086     0.00000     0.00000     0.00000       4     4     0
   0.12500     0.40385     0.00006     0.00004     0.00004       4     4     0
   0.13086     0.40385     0.00005     0.00004     0.00004       4     4     0
   0.15385     0.40385     0.00002     0.00001     0.00001       4     4     0
   0.18750     0.40385     0.00001     0.00000     0.00000       4     4     0
   0.22115     0.40385     0.00000     0.00000     0.00000       4     4     0
   0.24414     0.40385     0.00000     0.00000     0.00000       4     4     0
   0.25000     0.40385     0.00000     0.00000     0.00000       4     4     0
   0.12500     0.43750     0.00002     0.00001     0.00001       4     4     0
   0.13086     0.43750     0.00001     0.00001     0.00001       4     4     0
   0.15385     0.43750     0.00001     0.00000     0.00000       4     4     0
   0.18750     0.43750     0.00000     0.00000     0.00000       4     4     0
   0.22115     0.43750     0.00000     0.00000     0.00000       4     4     0
   0.24414     0.43750     0.00000     0.00000     0.00000       4     4     0
   0.25000     0.43750     0.00000     0.00000     0.00000       4     4     0
   0.12500     0.47115     0.00000     0.00000     0.00000       4     4     0
   0.13086     0.47115     0.00000     0.00000     0.00000       4     4     0
   0.15385     0.47115     0.00000     0.00000     0.00000       4     4     0
   0.18750     0.47115     0.00000     0.00000     0.00000       4     4     0
   0.22115     0.47115     0.00000     0.00000     0.00000       4     4     0
   0.24414     0.47115     0.00000     0.00000     0.00000       4     4     0
   0.25000     0.47115     0.00000     0.00000     0.00000       4     4     0
   0.12500     0.49414     0.00000     0.00000     0.00000       4     4     0
   0.13086     0.49414     0.00000     0.00000     0.00000       4     4     0
   0.15385     0.49414     0.00000     0.00000     0.00000       4     4     0
   0.18750     0.49414     0.00000     0.00000     0.00000       4     4     0
   0.22115     0.49414     0.00000     0.00000     0.00000       4     4     0
   0.24414     0.49414     0.00000     0.00000     0.00000       4     4     0
   0.25000     0.49414     0.00000     0.00000     0.00000       4     4     0
   0.12500     0.50000     0.00000     0.00000     0.00000       4     4     0
   0.13086     0.50000     0.00000     0.00000     0.00000       4     4     0
   0.15385     0.50000     0.00000     0.00000     0.00000       4     4     0
   0.18750     0.50000     0.00000     0.00000     0.00000       4     4     0
   0.22115     0.50000     0.00000     0.00000     0.00000       4     4     0
   0.24414     0.50000     0.00000     0.00000     0.00000       4     4     0
   0.25000     0.50000     0.00000     0.00000     0.00000       4     4     0
ZONE T= "IEL     8",  I= 7,  J= 7,  SOLUTIONTIME=   0.00000,  DATAPACKING = POINT
   0.12500     0.25000     0.00762     0.00539     0.00539       4     4     0
   0.13086     0.25000     0.00654     0.00463     0.00463       4     4     0
   0.15385     0.25000     0.00350     0.00248     0.00248       4     4     0
   0.18750     0.25000     0.00131     0.00093     0.00093       4     4     0
   0.22115     0.25000     0.00045     0.00032     0.00032       4     4     0
   0.24414     0.25000     0.00021     0.00015     0.00015       4     4     0
   0.25000     0.25000     0.00018     0.00013     0.00013       4     4     0
   0.12500     0.25586     0.00654     0.00463     0.00463       4     4     0
   0.13086     0.25586     0.00561     0.00397     0.00397       4     4     0
   0.15385     0.25586     0.00297     0.00210     0.00210       4     4     0
   0.18750     0.25586     0.00110     0.00078     0.00078       4     4     0
   0.22115     0.25586     0.00038     0.00027     0.00027       4     4     0
   0.24414     0.25586     0.00017     0.00012     0.00012       4     4     0
   0.25000     0.25586     0.00015     0.00011     0.00011       4     4     0
   0.12500     0.27885     0.00350     0.00248     0.00248       4     4     0
   0.13086     0.27885     0.00297     0.00210     0.00210       4     4     0
   0.15385     0.27885     0.00152     0.00108     0.00108       4     4     0
   0.18750     0.27885     0.00053     0.00038     0.00038       4     4     0
   0.22115     0.27885     0.00017     0.00012     0.00012       4     4     0
   0.24414     0.27885     0.00008     0.00005     0.00005       4     4     0
   0.25000     0.27885     0.00007     0.00005     0.00005       4     4     0
   0.12500     0.31250     0.00131     0.00093     0.00093       4     4     0
   0.13086     0.31250     0.00110     0.00078     0.00078       4     4     0
   0.15385     0.31250     0.00053     0.00038     0.00038       4     4     0
   0.18750     0.31250     0.00017     0.00012     0.00012       4     4     0
   0.22115     0.31250     0.00005     0.00004     0.00004       4     4     0
   0.24414     0.31250     0.00002     0.00002     0.00002       4     4     0