TITLE = "MESH AND SOLUTIONS"
VARIABLES = "X", "Y", "PRESSURE", "U", "V",  "N", "M", "PROC"
ZONE T= "IEL     1",  I=11,  J=11,  SOLUTIONTIME=   1.62020,  DATAPACKING = POINT
   0.00000     0.00000    -0.00000     0.00000     0.00000       8     8     0
   0.00796     0.00000    -0.00000     0.00001    -0.00000       8     8     0
   0.04099     0.00000    -0.00000     0.00009     0.00000       8     8     0
   0.09666     0.00000    -0.00000     0.00006     0.00000       8     8     0
   0.16894     0.00000    -0.00000    -0.00003     0.00000       8     8     0
   0.25000     0.00000    -0.00000     0.00002     0.00000       8     8     0
   0.33106     0.00000    -0.00000    -0.00002     0.00000       8     8     0
   0.40334     0.00000     0.00000     0.00002    -0.00000       8     8     0
   0.45901     0.00000     0.00001     0.00001    -0.00001       8     8     0
   0.49204     0.00000     0.00001    -0.00001    -0.00001       8     8     0
   0.50000     0.00000     0.00001     0.00001    -0.00000       8     8     0
   0.00000     0.00796    -0.00000    -0.00000     0.00001       8     8     0
   0.00796     0.00796    -0.00000    -0.00001    -0.00001       8     8     0
   0.04099     0.00796    -0.00000     0.00003    -0.00001       8     8     0
   0.09666     0.00796    -0.00000     0.00002     0.00001       8     8     0
   0.16894     0.00796    -0.00000    -0.00002    -0.00000       8     8     0
   0.25000     0.00796    -0.00000     0.00002     0.00000       8     8     0
   0.33106     0.00796    -0.00000    -0.00002     0.00000       8     8     0
   0.40334     0.00796     0.00000     0.00001    -0.00001       8     8     0
   0.45901     0.00796     0.00001     0.00001     0.00000       8     8     0
   0.49204     0.00796     0.00001    -0.00001    -0.00002       8     8     0
   0.50000     0.00796     0.00001     0.00001    -0.00004       8     8     0
   0.00000     0.04099    -0.00000     0.00000     0.00009       8     8     0
   0.00796     0.04099    -0.00000    -0.00001     0.00003       8     8     0
   0.04099     0.04099    -0.00000    -0.00003    -0.00003       8     8     0
   0.09666     0.04099    -0.00000    -0.00002     0.00002       8     8     0
   0.16894     0.04099    -0.00000    -0.00000    -0.00001       8     8     0
   0.25000     0.04099    -0.00000     0.00001     0.00000       8     8     0
   0.33106     0.04099    -0.00000    -0.00000     0.00001       8     8     0
   0.40334     0.04099    -0.00000    -0.00001    -0.00002       8     8     0
   0.45901     0.04099    -0.00000     0.00000     0.00002       8     8     0
   0.49204     0.04099     0.00001     0.00001    -0.00003       8     8     0
   0.50000     0.04099     0.00001     0.00000    -0.00008       8     8     0
   0.00000     0.09666    -0.00000     0.00000     0.00006       8     8     0
   0.00796     0.09666    -0.00000     0.00001     0.00002       8     8     0
   0.04099     0.09666    -0.00000     0.00002    -0.00002       8     8     0
   0.09666     0.09666     0.00000     0.00001     0.00001       8     8     0
   0.16894     0.09666     0.00000     0.00000    -0.00001       8     8     0
   0.25000     0.09666     0.00000    -0.00001    -0.00000       8     8     0
   0.33106     0.09666    -0.00000     0.00001     0.00001       8     8     0
   0.40334     0.09666    -0.00001    -0.00000    -0.00000       8     8     0
   0.45901     0.09666    -0.00001    -0.00001     0.00001       8     8     0
   0.49204     0.09666    -0.00000     0.00000    -0.00000       8     8     0
   0.50000     0.09666    -0.00000    -0.00000    -0.00002       8     8     0
   0.00000     0.16894    -0.00000     0.00000    -0.00003       8     8     0
   0.00796     0.16894    -0.00000    -0.00000    -0.00002       8     8     0
   0.04099     0.16894    -0.00000    -0.00001    -0.00000       8     8     0
   0.09666     0.16894     0.00000    -0.00001     0.00000       8     8     0
   0.16894     0.16894     0.00000     0.00000     0.00000       8     8     0
   0.25000     0.16894    -0.00000    -0.00000    -0.00000       8     8     0
   0.33106     0.16894     0.00000    -0.00000    -0.00001       8     8     0
   0.40334     0.16894     0.00000     0.00000     0.00001       8     8     0
   0.45901     0.16894    -0.00000    -0.00000    -0.00001       8     8     0
   0.49204     0.16894    -0.00001    -0.00000     0.00001       8     8     0
   0.50000     0.16894    -0.00001    -0.00000     0.00003       8     8     0
   0.00000     0.25000    -0.00000     0.00000     0.00002       8     8     0
   0.00796     0.25000    -0.00000     0.00000     0.00002       8     8     0
   0.04099     0.25000    -0.00000     0.00000     0.00001       8     8     0
   0.09666     0.25000     0.00000    -0.00000    -0.00001       8     8     0
   0.16894     0.25000    -0.00000    -0.00000    -0.00000       8     8     0
   0.25000     0.25000    -0.00000     0.00001     0.00001       8     8     0
   0.33106     0.25000     0.00000    -0.00000    -0.00000       8     8     0
   0.40334     0.25000    -0.00000     0.00000     0.00000       8     8     0
   0.45901     0.25000     0.00000     0.00000    -0.00001       8     8     0
   0.49204     0.25000     0.00001     0.00000    -0.00000       8     8     0
   0.50000     0.25000     0.00001     0.00000     0.00000       8     8     0
   0.00000     0.33106    -0.00000     0.00000    -0.00002       8     8     0
   0.00796     0.33106    -0.00000     0.00000    -0.00002       8     8     0
   0.04099     0.33106    -0.00000     0.00001    -0.00000       8     8     0
   0.09666     0.33106    -0.00000     0.00001     0.00001       8     8     0
   0.16894     0.33106     0.00000    -0.00001    -0.00000       8     8     0
   0.25000     0.33106     0.00000    -0.00000    -0.00000       8     8     0
   0.33106     0.33106    -0.00000     0.00000     0.00000       8     8     0
   0.40334     0.33106    -0.00000    -0.00000     0.00000       8     8     0
   0.45901     0.33106    -0.00000    -0.00000     0.00000       8     8     0
   0.49204     0.33106     0.00000    -0.00000    -0.00000       8     8     0
   0.50000     0.33106     0.00000    -0.00000     0.00000       8     8     0
   0.00000     0.40334     0.00000    -0.00000     0.00002       8     8     0
   0.00796     0.40334     0.00000    -0.00001     0.00001       8     8     0
   0.04099     0.40334    -0.00000    -0.00002    -0.00001       8     8     0
   0.09666     0.40334    -0.00001    -0.00000    -0.00000       8     8     0
   0.16894     0.40334     0.00000     0.00001     0.00000       8     8     0
   0.25000     0.40334    -0.00000     0.00000     0.00000       8     8     0
   0.33106     0.40334    -0.00000     0.00000    -0.00000       8     8     0
   0.40334     0.40334     0.00001    -0.00000    -0.00000       8     8     0
   0.45901     0.40334    -0.00000     0.00000     0.00000       8     8     0
   0.49204     0.40334    -0.00001     0.00000     0.00001       8     8     0
   0.50000     0.40334    -0.00001    -0.00000     0.00001       8     8     0
   0.00000     0.45901     0.00001    -0.00001     0.00001       8     8     0
   0.00796     0.45901     0.00001     0.00000     0.00001       8     8     0
   0.04099     0.45901    -0.00000     0.00002     0.00000       8     8     0
   0.09666     0.45901    -0.00001     0.00001    -0.00001       8     8     0
   0.16894     0.45901    -0.00000    -0.00001    -0.00000       8     8     0
   0.25000     0.45901     0.00000    -0.00001     0.00000       8     8     0
   0.33106     0.45901    -0.00000     0.00000    -0.00000       8     8     0
   0.40334     0.45901    -0.00000     0.00000     0.00000       8     8     0
   0.45901     0.45901     0.00000    -0.00000    -0.00000       8     8     0
   0.49204     0.45901     0.00001    -0.00000    -0.00001       8     8     0
   0.50000     0.45901     0.00001    -0.00000    -0.00001       8     8     0
   0.00000     0.49204     0.00001    -0.00001    -0.00001       8     8     0
   0.00796     0.49204     0.00001    -0.00002    -0.00001       8     8     0
   0.04099     0.49204     0.00001    -0.00003     0.00001       8     8     0
   0.09666     0.49204    -0.00000    -0.00000     0.00000       8     8     0
   0.16894     0.49204    -0.00001     0.00001    -0.00000       8     8     0
   0.25000     0.49204     0.00001    -0.00000     0.00000       8     8     0
   0.33106     0.49204     0.00000    -0.00000    -0.00000       8     8     0
   0.40334     0.49204    -0.00001     0.00001     0.00000       8     8     0
   0.45901     0.49204     0.00001    -0.00001    -0.00000       8     8     0
   0.49204     0.49204     0.00002    -0.00001    -0.00001       8     8     0
   0.50000     0.49204     0.00001    -0.00000    -0.00001       8     8     0
   0.00000     0.50000     0.00001    -0.00000     0.00001       8     8     0
   0.00796     0.50000     0.00001    -0.00004     0.00001       8     8     0
   0.04099     0.50000     0.00001    -0.00008     0.00000       8     8     0
   0.09666     0.50000    -0.00000    -0.00002    -0.00000       8     8     0
   0.16894     0.50000    -0.00001     0.00003    -0.00000       8     8     0
   0.25000     0.50000     0.00001     0.00000     0.00000       8     8     0
   0.33106     0.50000     0.00000     0.00000    -0.00000       8     8     0
   0.40334     0.50000    -0.00001     0.00001    -0.00000       8     8     0
   0.45901     0.50000     0.00001    -0.00001    -0.00000       8     8     0
   0.49204     0.50000     0.00001    -0.00001    -0.00000       8     8     0
   0.50000     0.50000     0.00001    -0.00000    -0.00000       8     8     0
ZONE T= "IEL     2",  I=11,  J=11,  SOLUTIONTIME=   1.62020,  DATAPACKING = POINT
   0.00000     0.50000     0.00001    -0.00001     0.00002       8     8     0
   0.00796     0.50000     0.00001    -0.00001     0.00002       8     8     0
   0.04099     0.50000     0.00001    -0.00001     0.00001       8     8     0
   0.09666     0.50000     0.00000     0.00000    -0.00000       8     8     0
   0.16894     0.50000    -0.00002     0.00001    -0.00001       8     8     0
   0.25000     0.50000     0.00001    -0.00001     0.00001       8     8     0
   0.33106     0.50000     0.00001    -0.00000     0.00001       8     8     0
   0.40334     0.50000    -0.00003     0.00002    -0.00001       8     8     0
   0.45901     0.50000     0.00001    -0.00001    -0.00000       8     8     0
   0.49204     0.50000     0.00003    -0.00002     0.00001       8     8     0
   0.50000     0.50000     0.00003    -0.00001     0.00001       8     8     0
   0.00000     0.50796     0.00001    -0.00000     0.00001       8     8     0
   0.00796     0.50796     0.00001    -0.00000     0.00001       8     8     0
   0.04099     0.50796     0.00001    -0.00001     0.00001       8     8     0
   0.09666     0.50796     0.00000    -0.00000    -0.00000       8     8     0
   0.16894     0.50796    -0.00001     0.00001    -0.00001       8     8     0
   0.25000     0.50796     0.00001    -0.00000     0.00000       8     8     0
   0.33106     0.50796     0.00000    -0.00000     0.00000       8     8     0
   0.40334     0.50796    -0.00002     0.00001    -0.00000       8     8     0
   0.45901     0.50796     0.00001    -0.00001    -0.00000       8     8     0
   0.49204     0.50796     0.00002    -0.00001    -0.00000       8     8     0
   0.50000     0.50796     0.00001    -0.00000    -0.00000       8     8     0
   0.00000     0.54099     0.00000    -0.00000     0.00001       8     8     0
   0.00796     0.54099     0.00000    -0.00000     0.00001       8     8     0
   0.04099     0.54099     0.00001    -0.00001     0.00001       8     8     0
   0.09666     0.54099     0.00001    -0.00000     0.00000       8     8     0
   0.16894     0.54099    -0.00001     0.00001    -0.00001       8     8     0
   0.25000     0.54099     0.00000    -0.00000     0.00000       8     8     0
   0.33106     0.54099     0.00001    -0.00000     0.00000       8     8     0
   0.40334     0.54099    -0.00001     0.00001    -0.00001       8     8     0
   0.45901     0.54099     0.00000    -0.00001     0.00000       8     8     0
   0.49204     0.54099     0.00001    -0.00001     0.00001       8     8     0
   0.50000     0.54099     0.00000    -0.00000     0.00001       8     8     0
   0.00000     0.59666    -0.00001     0.00001    -0.00001       8     8     0
   0.00796     0.59666    -0.00001     0.00001    -0.00001       8     8     0
   0.04099     0.59666     0.00001     0.00000     0.00001       8     8     0
   0.09666     0.59666     0.00002    -0.00001     0.00002       8     8     0
   0.16894     0.59666    -0.00001    -0.00000    -0.00001       8     8     0
   0.25000     0.59666    -0.00001     0.00001    -0.00001       8     8     0
   0.33106     0.59666     0.00002    -0.00001     0.00001       8     8     0
   0.40334     0.59666     0.00000    -0.00000    -0.00001       8     8     0
   0.45901     0.59666    -0.00003     0.00003    -0.00001       8     8     0
   0.49204     0.59666    -0.00002     0.00001     0.00001       8     8     0
   0.50000     0.59666    -0.00001     0.00000     0.00001       8     8     0
   0.00000     0.66894    -0.00002     0.00001    -0.00001       8     8     0
   0.00796     0.66894    -0.00002     0.00002    -0.00001       8     8     0
   0.04099     0.66894    -0.00004     0.00002    -0.00002       8     8     0
   0.09666     0.66894    -0.00001     0.00000    -0.00000       8     8     0
   0.16894     0.66894     0.00004    -0.00002     0.00002       8     8     0
   0.25000     0.66894    -0.00001     0.00001    -0.00001       8     8     0
   0.33106     0.66894    -0.00003     0.00002    -0.00001       8     8     0
   0.40334     0.66894     0.00004    -0.00003     0.00003       8     8     0
   0.45901     0.66894     0.00002    -0.00001     0.00000       8     8     0
   0.49204     0.66894    -0.00001     0.00002    -0.00003       8     8     0
   0.50000     0.66894    -0.00001     0.00002    -0.00003       8     8     0
   0.00000     0.75000     0.00003    -0.00002     0.00002       8     8     0
   0.00796     0.75000     0.00002    -0.00002     0.00002       8     8     0
   0.04099     0.75000     0.00001    -0.00001     0.00000       8     8     0
   0.09666     0.75000    -0.00003     0.00002    -0.00003       8     8     0
   0.16894     0.75000    -0.00001     0.00002    -0.00000       8     8     0
   0.25000     0.75000     0.00004    -0.00003     0.00003       8     8     0
   0.33106     0.75000    -0.00002     0.00001    -0.00002       8     8     0
   0.40334     0.75000    -0.00004     0.00003    -0.00002       8     8     0
   0.45901     0.75000     0.00004    -0.00004     0.00003       8     8     0
   0.49204     0.75000     0.00005    -0.00004     0.00004       8     8     0
   0.50000     0.75000     0.00004    -0.00003     0.00003       8     8     0
   0.00000     0.83106     0.00001    -0.00001    -0.00000       8     8     0
   0.00796     0.83106     0.00002    -0.00001     0.00000       8     8     0
   0.04099     0.83106     0.00005    -0.00003     0.00002       8     8     0
   0.09666     0.83106     0.00003    -0.00002     0.00003       8     8     0
   0.16894     0.83106    -0.00005     0.00003    -0.00003       8     8     0
   0.25000     0.83106    -0.00001     0.00001    -0.00001       8     8     0
   0.33106     0.83106     0.00006    -0.00004     0.00004       8     8     0
   0.40334     0.83106    -0.00003     0.00002    -0.00002       8     8     0
   0.45901     0.83106    -0.00009     0.00006    -0.00004       8     8     0
   0.49204     0.83106    -0.00003     0.00002    -0.00000       8     8     0
   0.50000     0.83106    -0.00001     0.00000     0.00001       8     8     0
   0.00000     0.90334    -0.00003     0.00003    -0.00003       8     8     0
   0.00796     0.90334    -0.00003     0.00003    -0.00003       8     8     0
   0.04099     0.90334    -0.00004     0.00003    -0.00001       8     8     0
   0.09666     0.90334     0.00001    -0.00002     0.00003       8     8     0
   0.16894     0.90334     0.00005    -0.00004     0.00002       8     8     0
   0.25000     0.90334    -0.00005     0.00004    -0.00004       8     8     0
   0.33106     0.90334    -0.00002     0.00002     0.00001       8     8     0
   0.40334     0.90334     0.00008    -0.00007     0.00005       8     8     0
   0.45901     0.90334     0.00000     0.00000    -0.00003       8     8     0
   0.49204     0.90334    -0.00007     0.00006    -0.00008       8     8     0
   0.50000     0.90334    -0.00007     0.00005    -0.00007       8     8     0
   0.00000     0.95901    -0.00001     0.00001     0.00000       8     8     0
   0.00796     0.95901    -0.00002     0.00001    -0.00000       8     8     0
   0.04099     0.95901    -0.00006     0.00003    -0.00003       8     8     0
   0.09666     0.95901    -0.00005     0.00003    -0.00003       8     8     0
   0.16894     0.95901     0.00007    -0.00004     0.00004       8     8     0
   0.25000     0.95901     0.00001    -0.00001     0.00002       8     8     0
   0.33106     0.95901    -0.00010     0.00006    -0.00006       8     8     0
   0.40334     0.95901     0.00007    -0.00004     0.00002       8     8     0
   0.45901     0.95901     0.00012    -0.00008     0.00007       8     8     0
   0.49204     0.95901     0.00003    -0.00002     0.00003       8     8     0
   0.50000     0.95901     0.00000    -0.00000     0.00001       8     8     0
   0.00000     0.99204     0.00003    -0.00002     0.00003       8     8     0
   0.00796     0.99204     0.00002    -0.00002     0.00002       8     8     0
   0.04099     0.99204    -0.00002     0.00000    -0.00001       8     8     0
   0.09666     0.99204    -0.00005     0.00004    -0.00005       8     8     0
   0.16894     0.99204     0.00002    -0.00000     0.00001       8     8     0
   0.25000     0.99204     0.00005    -0.00004     0.00005       8     8     0
   0.33106     0.99204    -0.00006     0.00004    -0.00005       8     8     0
   0.40334     0.99204    -0.00002     0.00003    -0.00003       8     8     0
   0.45901     0.99204     0.00010    -0.00006     0.00009       8     8     0
   0.49204     0.99204     0.00009    -0.00007     0.00009       8     8     0
   0.50000     0.99204     0.00008    -0.00006     0.00008       8     8     0
   0.00000     1.00000     0.00004    -0.00003     0.00003       8     8     0
   0.00796     1.00000     0.00003    -0.00003     0.00003       8     8     0
   0.04099     1.00000    -0.00001    -0.00001    -0.00000       8     8     0
   0.09666     1.00000    -0.00005     0.00004    -0.00005       8     8     0
   0.16894     1.00000     0.00000     0.00000     0.00000       8     8     0
   0.25000     1.00000     0.00006    -0.00005     0.00005       8     8     0
   0.33106     1.00000    -0.00005     0.00003    -0.00004       8     8     0
   0.40334     1.00000    -0.00004     0.00004    -0.00004       8     8     0
   0.45901     1.00000     0.00009    -0.00006     0.00007       8     8     0
   0.49204     1.00000     0.00011    -0.00008     0.00009       8     8     0
   0.50000     1.00000     0.00010    -0.00007     0.00008       8     8     0
ZONE T= "IEL     3",  I=11,  J=11,  SOLUTIONTIME=   1.62020,  DATAPACKING = POINT
   0.50000     0.50000     0.00005    -0.00001    -0.00001       8     8     0
   0.50796     0.50000     0.00004    -0.00002     0.00001       8     8     0
   0.54099     0.50000     0.00002     0.00000     0.00001       8     8     0
   0.59666     0.50000    -0.00003     0.00002    -0.00001       8     8     0
   0.66894     0.50000    -0.00003    -0.00002     0.00001       8     8     0
   0.75000     0.50000     0.00006     0.00002    -0.00003       8     8     0
   0.83106     0.50000    -0.00000     0.00002     0.00001       8     8     0
   0.90334     0.50000    -0.00006    -0.00005     0.00008       8     8     0
   0.95901     0.50000    -0.00004    -0.00003    -0.00004       8     8     0
   0.99204     0.50000    -0.00003    -0.00002    -0.00018       8     8     0
   1.00000     0.50000    -0.00003    -0.00004    -0.00021       8     8     0
   0.50000     0.50796     0.00004     0.00001    -0.00002       8     8     0
   0.50796     0.50796     0.00002    -0.00000    -0.00000       8     8     0
   0.54099     0.50796     0.00001     0.00001    -0.00000       8     8     0
   0.59666     0.50796    -0.00001     0.00001     0.00000       8     8     0
   0.66894     0.50796    -0.00003    -0.00004     0.00002       8     8     0
   0.75000     0.50796     0.00005     0.00003    -0.00003       8     8     0
   0.83106     0.50796     0.00001     0.00002    -0.00001       8     8     0
   0.90334     0.50796    -0.00009    -0.00008     0.00007       8     8     0
   0.95901     0.50796    -0.00005    -0.00001     0.00001       8     8     0
   0.99204     0.50796     0.00005     0.00006    -0.00007       8     8     0
   1.00000     0.50796     0.00008     0.00006    -0.00009       8     8     0
   0.50000     0.54099     0.00002     0.00001     0.00000       8     8     0
   0.50796     0.54099     0.00001    -0.00000     0.00001       8     8     0
   0.54099     0.54099    -0.00000     0.00000     0.00000       8     8     0
   0.59666     0.54099     0.00002     0.00002    -0.00003       8     8     0
   0.66894     0.54099    -0.00004    -0.00003     0.00003       8     8     0
   0.75000     0.54099     0.00000    -0.00000     0.00001       8     8     0
   0.83106     0.54099     0.00009     0.00004    -0.00007       8     8     0
   0.90334     0.54099    -0.00008    -0.00004     0.00006       8     8     0
   0.95901     0.54099    -0.00013    -0.00006     0.00012       8     8     0
   0.99204     0.54099    -0.00001    -0.00000     0.00003       8     8     0
   1.00000     0.54099     0.00002     0.00002     0.00001       8     8     0
   0.50000     0.59666    -0.00003    -0.00001     0.00002       8     8     0
   0.50796     0.59666    -0.00001     0.00000     0.00001       8     8     0
   0.54099     0.59666     0.00002    -0.00003     0.00002       8     8     0
   0.59666     0.59666     0.00003    -0.00001    -0.00001       8     8     0
   0.66894     0.59666    -0.00002     0.00005    -0.00003       8     8     0
   0.75000     0.59666    -0.00005    -0.00006     0.00004       8     8     0
   0.83106     0.59666     0.00008     0.00001    -0.00002       8     8     0
   0.90334     0.59666     0.00004     0.00010    -0.00005       8     8     0
   0.95901     0.59666    -0.00012    -0.00008     0.00003       8     8     0
   0.99204     0.59666    -0.00017    -0.00016     0.00006       8     8     0
   1.00000     0.59666    -0.00018    -0.00015     0.00006       8     8     0
   0.50000     0.66894    -0.00003     0.00001    -0.00002       8     8     0
   0.50796     0.66894    -0.00003     0.00002    -0.00004       8     8     0
   0.54099     0.66894    -0.00004     0.00003    -0.00003       8     8     0
   0.59666     0.66894    -0.00002    -0.00003     0.00005       8     8     0
   0.66894     0.66894     0.00007    -0.00001    -0.00001       8     8     0
   0.75000     0.66894    -0.00001     0.00004    -0.00003       8     8     0
   0.83106     0.66894    -0.00013    -0.00006     0.00006       8     8     0
   0.90334     0.66894     0.00007    -0.00001    -0.00006       8     8     0
   0.95901     0.66894     0.00021     0.00013    -0.00008       8     8     0
   0.99204     0.66894     0.00014     0.00012     0.00003       8     8     0
   1.00000     0.66894     0.00012     0.00010     0.00006       8     8     0
   0.50000     0.75000     0.00006    -0.00003     0.00002       8     8     0
   0.50796     0.75000     0.00005    -0.00003     0.00003       8     8     0
   0.54099     0.75000     0.00000     0.00001    -0.00000       8     8     0
   0.59666     0.75000    -0.00005     0.00004    -0.00006       8     8     0
   0.66894     0.75000    -0.00001    -0.00003     0.00004       8     8     0
   0.75000     0.75000     0.00007     0.00000     0.00000       8     8     0
   0.83106     0.75000    -0.00003     0.00003    -0.00005       8     8     0
   0.90334     0.75000    -0.00003    -0.00004     0.00012       8     8     0
   0.95901     0.75000     0.00002    -0.00000     0.00006       8     8     0
   0.99204     0.75000     0.00004     0.00003    -0.00012       8     8     0
   1.00000     0.75000     0.00006     0.00002    -0.00014       8     8     0
   0.50000     0.83106    -0.00000     0.00001     0.00002       8     8     0
   0.50796     0.83106     0.00001    -0.00001     0.00002       8     8     0
   0.54099     0.83106     0.00009    -0.00007     0.00004       8     8     0
   0.59666     0.83106     0.00008    -0.00002     0.00001       8     8     0
   0.66894     0.83106    -0.00013     0.00006    -0.00006       8     8     0
   0.75000     0.83106    -0.00003    -0.00005     0.00003       8     8     0
   0.83106     0.83106     0.00023     0.00003     0.00003       8     8     0
   0.90334     0.83106    -0.00010     0.00007    -0.00008       8     8     0
   0.95901     0.83106    -0.00018    -0.00008     0.00007       8     8     0
   0.99204     0.83106     0.00028     0.00017     0.00041       8     8     0
   1.00000     0.83106     0.00045     0.00035     0.00053       8     8     0
   0.50000     0.90334    -0.00006     0.00008    -0.00005       8     8     0
   0.50796     0.90334    -0.00009     0.00007    -0.00008       8     8     0
   0.54099     0.90334    -0.00008     0.00006    -0.00004       8     8     0
   0.59666     0.90334     0.00004    -0.00005     0.00010       8     8     0
   0.66894     0.90334     0.00007    -0.00006    -0.00001       8     8     0
   0.75000     0.90334    -0.00003     0.00012    -0.00004       8     8     0
   0.83106     0.90334    -0.00010    -0.00008     0.00007       8     8     0
   0.90334     0.90334     0.00030     0.00008     0.00008       8     8     0
   0.95901     0.90334     0.00194     0.00141     0.00115       8     8     0
   0.99204     0.90334     0.00468     0.00339     0.00327       8     8     0
   1.00000     0.90334     0.00573     0.00411     0.00406       8     8     0
   0.50000     0.95901    -0.00004    -0.00004    -0.00003       8     8     0
   0.50796     0.95901    -0.00005     0.00001    -0.00001       8     8     0
   0.54099     0.95901    -0.00013     0.00012    -0.00006       8     8     0
   0.59666     0.95901    -0.00012     0.00003    -0.00008       8     8     0
   0.66894     0.95901     0.00021    -0.00008     0.00013       8     8     0
   0.75000     0.95901     0.00002     0.00006    -0.00000       8     8     0
   0.83106     0.95901    -0.00018     0.00007    -0.00008       8     8     0
   0.90334     0.95901     0.00194     0.00115     0.00141       8     8     0
   0.95901     0.95901     0.00855     0.00596     0.00596       8     8     0
   0.99204     0.95901     0.01842     0.01305     0.01287       8     8     0
   1.00000     0.95901     0.02207     0.01554     0.01545       8     8     0
   0.50000     0.99204    -0.00003    -0.00018    -0.00002       8     8     0
   0.50796     0.99204     0.00005    -0.00007     0.00006       8     8     0
   0.54099     0.99204    -0.00001     0.00003    -0.00000       8     8     0
   0.59666     0.99204    -0.00017     0.00006    -0.00016       8     8     0
   0.66894     0.99204     0.00014     0.00003     0.00012       8     8     0
   0.75000     0.99204     0.00004    -0.00012     0.00003       8     8     0
   0.83106     0.99204     0.00028     0.00041     0.00017       8     8     0
   0.90334     0.99204     0.00468     0.00327     0.00339       8     8     0
   0.95901     0.99204     0.01842     0.01287     0.01305       8     8     0
   0.99204     0.99204     0.03783     0.02665     0.02665       8     8     0
   1.00000     0.99204     0.04469     0.03143     0.03147       8     8     0
   0.50000     1.00000    -0.00003    -0.00021    -0.00004       8     8     0
   0.50796     1.00000     0.00008    -0.00009     0.00006       8     8     0
   0.54099     1.00000     0.00002     0.00001     0.00002       8     8     0
   0.59666     1.00000    -0.00018     0.00006    -0.00015       8     8     0
   0.66894     1.00000     0.00012     0.00006     0.00010       8     8     0
   0.75000     1.00000     0.00006    -0.00014     0.00002       8     8     0
   0.83106     1.00000     0.00045     0.00053     0.00035       8     8     0
   0.90334     1.00000     0.00573     0.00406     0.00411       8     8     0
   0.95901     1.00000     0.02207     0.01545     0.01554       8     8     0
   0.99204     1.00000     0.04469     0.03147     0.03143       8     8     0
   1.00000     1.00000     0.05257     0.03698     0.03698       8     8     0
ZONE T= "IEL     4",  I=11,  J=11,  SOLUTIONTIME=   1.62020,  DATAPACKING = POINT
   0.50000     0.00000     0.00001     0.00002    -0.00001       8     8     0
   0.50796     0.00000     0.00001     0.00001    -0.00000       8     8     0
   0.54099     0.00000     0.00000     0.00001    -0.00000       8     8     0
   0.59666     0.00000    -0.00001    -0.00001     0.00001       8     8     0
   0.66894     0.00000    -0.00002    -0.00001     0.00001       8     8     0
   0.75000     0.00000     0.00003     0.00002    -0.00002       8     8     0
   0.83106     0.00000     0.00001    -0.00000    -0.00001       8     8     0
   0.90334     0.00000    -0.00003    -0.00003     0.00003       8     8     0
   0.95901     0.00000    -0.00001     0.00000     0.00001       8     8     0
   0.99204     0.00000     0.00003     0.00003    -0.00002       8     8     0
   1.00000     0.00000     0.00004     0.00003    -0.00003       8     8     0