TITLE = "MESH AND SOLUTIONS"
VARIABLES = "X", "Y", "PRESSURE", "U", "V",  "N", "M", "PROC"
ZONE T= "IEL     1",  I=11,  J=11,  SOLUTIONTIME=   1.06020,  DATAPACKING = POINT
   0.00000     0.00000    -0.00003     0.00002     0.00002       8     8     0
   0.00796     0.00000    -0.00003     0.00004     0.00002       8     8     0
   0.04099     0.00000     0.00000     0.00009    -0.00001       8     8     0
   0.09666     0.00000     0.00000     0.00006     0.00000       8     8     0
   0.16894     0.00000    -0.00004     0.00000     0.00005       8     8     0
   0.25000     0.00000     0.00000    -0.00003    -0.00002       8     8     0
   0.33106     0.00000    -0.00005    -0.00001     0.00007       8     8     0
   0.40334     0.00000     0.00016    -0.00013    -0.00016       8     8     0
   0.45901     0.00000     0.00191    -0.00198    -0.00197       8     8     0
   0.49204     0.00000     0.00486    -0.00524    -0.00491       8     8     0
   0.50000     0.00000     0.00594    -0.00641    -0.00597       8     8     0
   0.00000     0.00796    -0.00003     0.00002     0.00004       8     8     0
   0.00796     0.00796    -0.00003     0.00002     0.00002       8     8     0
   0.04099     0.00796     0.00001     0.00002    -0.00002       8     8     0
   0.09666     0.00796    -0.00000     0.00002     0.00001       8     8     0
   0.16894     0.00796    -0.00004     0.00000     0.00004       8     8     0
   0.25000     0.00796     0.00001    -0.00004    -0.00000       8     8     0
   0.33106     0.00796    -0.00008     0.00002     0.00006       8     8     0
   0.40334     0.00796     0.00026    -0.00024    -0.00016       8     8     0
   0.45901     0.00796     0.00236    -0.00246    -0.00185       8     8     0
   0.49204     0.00796     0.00580    -0.00625    -0.00469       8     8     0
   0.50000     0.00796     0.00706    -0.00763    -0.00573       8     8     0
   0.00000     0.04099     0.00000    -0.00001     0.00009       8     8     0
   0.00796     0.04099     0.00001    -0.00002     0.00002       8     8     0
   0.04099     0.04099     0.00009    -0.00008    -0.00008       8     8     0
   0.09666     0.04099     0.00005     0.00000    -0.00005       8     8     0
   0.16894     0.04099     0.00005     0.00003    -0.00006       8     8     0
   0.25000     0.04099     0.00009    -0.00006    -0.00004       8     8     0
   0.33106     0.04099    -0.00015     0.00008     0.00006       8     8     0
   0.40334     0.04099     0.00057    -0.00061    -0.00011       8     8     0
   0.45901     0.04099     0.00390    -0.00411    -0.00133       8     8     0
   0.49204     0.04099     0.00915    -0.00986    -0.00350       8     8     0
   0.50000     0.04099     0.01110    -0.01201    -0.00432       8     8     0
   0.00000     0.09666     0.00000     0.00000     0.00006       8     8     0
   0.00796     0.09666    -0.00000     0.00001     0.00002       8     8     0
   0.04099     0.09666     0.00005    -0.00005     0.00000       8     8     0
   0.09666     0.09666    -0.00007     0.00004     0.00004       8     8     0
   0.16894     0.09666    -0.00003     0.00003     0.00000       8     8     0
   0.25000     0.09666     0.00015    -0.00009    -0.00005       8     8     0
   0.33106     0.09666    -0.00014     0.00019    -0.00004       8     8     0
   0.40334     0.09666     0.00084    -0.00088     0.00004       8     8     0
   0.45901     0.09666     0.00536    -0.00565    -0.00022       8     8     0
   0.49204     0.09666     0.01243    -0.01324    -0.00087       8     8     0
   0.50000     0.09666     0.01506    -0.01609    -0.00112       8     8     0
   0.00000     0.16894    -0.00004     0.00005     0.00000       8     8     0
   0.00796     0.16894    -0.00004     0.00004     0.00000       8     8     0
   0.04099     0.16894     0.00005    -0.00006     0.00003       8     8     0
   0.09666     0.16894    -0.00003     0.00000     0.00003       8     8     0
   0.16894     0.16894    -0.00012     0.00005     0.00005       8     8     0
   0.25000     0.16894     0.00006    -0.00016     0.00010       8     8     0
   0.33106     0.16894    -0.00014     0.00014    -0.00006       8     8     0
   0.40334     0.16894     0.00060    -0.00053     0.00005       8     8     0
   0.45901     0.16894     0.00507    -0.00513     0.00088       8     8     0
   0.49204     0.16894     0.01211    -0.01246     0.00198       8     8     0
   0.50000     0.16894     0.01467    -0.01512     0.00235       8     8     0
   0.00000     0.25000     0.00000    -0.00002    -0.00003       8     8     0
   0.00796     0.25000     0.00001    -0.00000    -0.00004       8     8     0
   0.04099     0.25000     0.00009    -0.00004    -0.00006       8     8     0
   0.09666     0.25000     0.00015    -0.00005    -0.00009       8     8     0
   0.16894     0.25000     0.00006     0.00010    -0.00016       8     8     0
   0.25000     0.25000     0.00010    -0.00002    -0.00002       8     8     0
   0.33106     0.25000    -0.00000    -0.00008     0.00007       8     8     0
   0.40334     0.25000     0.00002    -0.00007    -0.00003       8     8     0
   0.45901     0.25000     0.00268    -0.00254     0.00078       8     8     0
   0.49204     0.25000     0.00754    -0.00726     0.00246       8     8     0
   0.50000     0.25000     0.00931    -0.00900     0.00307       8     8     0
   0.00000     0.33106    -0.00005     0.00007    -0.00001       8     8     0
   0.00796     0.33106    -0.00008     0.00006     0.00002       8     8     0
   0.04099     0.33106    -0.00015     0.00006     0.00008       8     8     0
   0.09666     0.33106    -0.00014    -0.00004     0.00019       8     8     0
   0.16894     0.33106    -0.00014    -0.00006     0.00014       8     8     0
   0.25000     0.33106    -0.00000     0.00007    -0.00008       8     8     0
   0.33106     0.33106     0.00018    -0.00001    -0.00001       8     8     0
   0.40334     0.33106    -0.00001    -0.00008     0.00004       8     8     0
   0.45901     0.33106     0.00057    -0.00063     0.00023       8     8     0
   0.49204     0.33106     0.00258    -0.00234     0.00109       8     8     0
   0.50000     0.33106     0.00343    -0.00308     0.00148       8     8     0
   0.00000     0.40334     0.00016    -0.00016    -0.00013       8     8     0
   0.00796     0.40334     0.00026    -0.00016    -0.00024       8     8     0
   0.04099     0.40334     0.00057    -0.00011    -0.00061       8     8     0
   0.09666     0.40334     0.00084     0.00004    -0.00088       8     8     0
   0.16894     0.40334     0.00060     0.00005    -0.00053       8     8     0
   0.25000     0.40334     0.00002    -0.00003    -0.00007       8     8     0
   0.33106     0.40334    -0.00001     0.00004    -0.00008       8     8     0
   0.40334     0.40334     0.00021     0.00001     0.00001       8     8     0
   0.45901     0.40334     0.00020    -0.00016     0.00015       8     8     0
   0.49204     0.40334     0.00048    -0.00053     0.00033       8     8     0
   0.50000     0.40334     0.00066    -0.00071     0.00044       8     8     0
   0.00000     0.45901     0.00191    -0.00197    -0.00198       8     8     0
   0.00796     0.45901     0.00236    -0.00185    -0.00246       8     8     0
   0.04099     0.45901     0.00390    -0.00133    -0.00411       8     8     0
   0.09666     0.45901     0.00536    -0.00022    -0.00565       8     8     0
   0.16894     0.45901     0.00507     0.00088    -0.00513       8     8     0
   0.25000     0.45901     0.00268     0.00078    -0.00254       8     8     0
   0.33106     0.45901     0.00057     0.00023    -0.00063       8     8     0
   0.40334     0.45901     0.00020     0.00015    -0.00016       8     8     0
   0.45901     0.45901     0.00034    -0.00000    -0.00000       8     8     0
   0.49204     0.45901     0.00032    -0.00021     0.00013       8     8     0
   0.50000     0.45901     0.00030    -0.00025     0.00016       8     8     0
   0.00000     0.49204     0.00486    -0.00491    -0.00524       8     8     0
   0.00796     0.49204     0.00580    -0.00469    -0.00625       8     8     0
   0.04099     0.49204     0.00915    -0.00350    -0.00986       8     8     0
   0.09666     0.49204     0.01243    -0.00087    -0.01324       8     8     0
   0.16894     0.49204     0.01211     0.00198    -0.01246       8     8     0
   0.25000     0.49204     0.00754     0.00246    -0.00726       8     8     0
   0.33106     0.49204     0.00258     0.00109    -0.00234       8     8     0
   0.40334     0.49204     0.00048     0.00033    -0.00053       8     8     0
   0.45901     0.49204     0.00032     0.00013    -0.00021       8     8     0
   0.49204     0.49204     0.00044    -0.00002    -0.00002       8     8     0
   0.50000     0.49204     0.00048    -0.00004     0.00003       8     8     0
   0.00000     0.50000     0.00594    -0.00597    -0.00641       8     8     0
   0.00796     0.50000     0.00706    -0.00573    -0.00763       8     8     0
   0.04099     0.50000     0.01110    -0.00432    -0.01201       8     8     0
   0.09666     0.50000     0.01506    -0.00112    -0.01609       8     8     0
   0.16894     0.50000     0.01467     0.00235    -0.01512       8     8     0
   0.25000     0.50000     0.00931     0.00307    -0.00900       8     8     0
   0.33106     0.50000     0.00343     0.00148    -0.00308       8     8     0
   0.40334     0.50000     0.00066     0.00044    -0.00071       8     8     0
   0.45901     0.50000     0.00030     0.00016    -0.00025       8     8     0
   0.49204     0.50000     0.00048     0.00003    -0.00004       8     8     0
   0.50000     0.50000     0.00054     0.00003     0.00003       8     8     0
ZONE T= "IEL     2",  I=11,  J=11,  SOLUTIONTIME=   1.06020,  DATAPACKING = POINT
   0.00000     0.50000     0.00582    -0.00599    -0.00665       8     8     0
   0.00796     0.50000     0.00700    -0.00557    -0.00783       8     8     0
   0.04099     0.50000     0.01113    -0.00405    -0.01214       8     8     0
   0.09666     0.50000     0.01509    -0.00118    -0.01629       8     8     0
   0.16894     0.50000     0.01478     0.00229    -0.01532       8     8     0
   0.25000     0.50000     0.00949     0.00317    -0.00897       8     8     0
   0.33106     0.50000     0.00377     0.00176    -0.00271       8     8     0
   0.40334     0.50000     0.00094     0.00061    -0.00045       8     8     0
   0.45901     0.50000    -0.00027    -0.00025    -0.00086       8     8     0
   0.49204     0.50000    -0.00077    -0.00080    -0.00129       8     8     0
   0.50000     0.50000    -0.00080    -0.00090    -0.00132       8     8     0
   0.00000     0.50796     0.00732    -0.00739    -0.00802       8     8     0
   0.00796     0.50796     0.00872    -0.00702    -0.00950       8     8     0
   0.04099     0.50796     0.01368    -0.00522    -0.01480       8     8     0
   0.09666     0.50796     0.01858    -0.00138    -0.01984       8     8     0
   0.16894     0.50796     0.01812     0.00285    -0.01871       8     8     0
   0.25000     0.50796     0.01146     0.00375    -0.01108       8     8     0
   0.33106     0.50796     0.00433     0.00188    -0.00379       8     8     0
   0.40334     0.50796     0.00097     0.00059    -0.00105       8     8     0
   0.45901     0.50796     0.00034     0.00021    -0.00056       8     8     0
   0.49204     0.50796     0.00047     0.00007    -0.00026       8     8     0
   0.50000     0.50796     0.00055     0.00007    -0.00016       8     8     0
   0.00000     0.54099     0.01660    -0.01656    -0.01820       8     8     0
   0.00796     0.54099     0.01923    -0.01588    -0.02115       8     8     0
   0.04099     0.54099     0.02884    -0.01197    -0.03173       8     8     0
   0.09666     0.54099     0.03882    -0.00356    -0.04198       8     8     0
   0.16894     0.54099     0.03894     0.00575    -0.04057       8     8     0
   0.25000     0.54099     0.02688     0.00902    -0.02632       8     8     0
   0.33106     0.54099     0.01201     0.00551    -0.01089       8     8     0
   0.40334     0.54099     0.00323     0.00174    -0.00281       8     8     0
   0.45901     0.54099     0.00087     0.00067    -0.00044       8     8     0
   0.49204     0.54099     0.00110     0.00074     0.00026       8     8     0
   0.50000     0.54099     0.00129     0.00081     0.00045       8     8     0
   0.00000     0.59666     0.05053    -0.05081    -0.05720       8     8     0
   0.00796     0.59666     0.05651    -0.04842    -0.06413       8     8     0
   0.04099     0.59666     0.07806    -0.03694    -0.08855       8     8     0
   0.09666     0.59666     0.10333    -0.01333    -0.11487       8     8     0
   0.16894     0.59666     0.11108     0.01525    -0.11777       8     8     0
   0.25000     0.59666     0.08584     0.02877    -0.08479       8     8     0
   0.33106     0.59666     0.04529     0.02159    -0.04104       8     8     0
   0.40334     0.59666     0.01762     0.00988    -0.01467       8     8     0
   0.45901     0.59666     0.00698     0.00441    -0.00449       8     8     0
   0.49204     0.59666     0.00532     0.00375    -0.00040       8     8     0
   0.50000     0.59666     0.00558     0.00396     0.00057       8     8     0
   0.00000     0.66894     0.12780    -0.12755    -0.15383       8     8     0
   0.00796     0.66894     0.13391    -0.12209    -0.16242       8     8     0
   0.04099     0.66894     0.15898    -0.09672    -0.19459       8     8     0
   0.09666     0.66894     0.19847    -0.04861    -0.23826       8     8     0
   0.16894     0.66894     0.24178     0.02115    -0.27111       8     8     0
   0.25000     0.66894     0.24416     0.08154    -0.24732       8     8     0
   0.33106     0.66894     0.17213     0.08479    -0.15738       8     8     0
   0.40334     0.66894     0.08696     0.05094    -0.06998       8     8     0
   0.45901     0.66894     0.04624     0.02969    -0.02324       8     8     0
   0.49204     0.66894     0.03985     0.02692    -0.00195       8     8     0
   0.50000     0.66894     0.04074     0.02759     0.00300       8     8     0
   0.00000     0.75000     0.18430    -0.18062    -0.25306       8     8     0
   0.00796     0.75000     0.18113    -0.17548    -0.25236       8     8     0
   0.04099     0.75000     0.17933    -0.15058    -0.25860       8     8     0
   0.09666     0.75000     0.19796    -0.10849    -0.28601       8     8     0
   0.16894     0.75000     0.26871    -0.03141    -0.35441       8     8     0
   0.25000     0.75000     0.38859     0.10615    -0.42959       8     8     0
   0.33106     0.75000     0.42156     0.20836    -0.39133       8     8     0
   0.40334     0.75000     0.31901     0.19355    -0.24184       8     8     0
   0.45901     0.75000     0.22739     0.15070    -0.09854       8     8     0
   0.49204     0.75000     0.21081     0.14452    -0.01366       8     8     0
   0.50000     0.75000     0.21302     0.14682     0.00732       8     8     0
   0.00000     0.83106     0.13755    -0.13508    -0.24529       8     8     0
   0.00796     0.83106     0.12952    -0.13499    -0.23587       8     8     0
   0.04099     0.83106     0.10314    -0.13780    -0.21033       8     8     0
   0.09666     0.83106     0.08239    -0.14595    -0.20103       8     8     0
   0.16894     0.83106     0.10511    -0.14044    -0.25350       8     8     0
   0.25000     0.83106     0.28029    -0.00954    -0.41245       8     8     0
   0.33106     0.83106     0.56488     0.25624    -0.54942       8     8     0
   0.40334     0.83106     0.70102     0.43231    -0.46054       8     8     0
   0.45901     0.83106     0.70212     0.47346    -0.22007       8     8     0
   0.49204     0.83106     0.70759     0.48977    -0.03356       8     8     0
   0.50000     0.83106     0.71263     0.49601     0.01375       8     8     0
   0.00000     0.90334     0.04974    -0.05791    -0.15403       8     8     0
   0.00796     0.90334     0.04947    -0.06098    -0.14774       8     8     0
   0.04099     0.90334     0.02954    -0.09168    -0.12259       8     8     0
   0.09666     0.90334    -0.00728    -0.14539    -0.10296       8     8     0
   0.16894     0.90334    -0.05344    -0.21544    -0.11795       8     8     0
   0.25000     0.90334     0.02404    -0.19095    -0.23917       8     8     0
   0.33106     0.90334     0.45736     0.15225    -0.44469       8     8     0
   0.40334     0.90334     1.00747     0.62407    -0.46350       8     8     0
   0.45901     0.90334     1.30858     0.89013    -0.24634       8     8     0
   0.49204     0.90334     1.39170     0.96707    -0.04146       8     8     0
   0.50000     0.90334     1.40179     0.97770     0.01140       8     8     0
   0.00000     0.95901     0.00330    -0.01893    -0.06635       8     8     0
   0.00796     0.95901     0.00931    -0.02312    -0.06431       8     8     0
   0.04099     0.95901    -0.00069    -0.06605    -0.05213       8     8     0
   0.09666     0.95901    -0.03981    -0.13831    -0.04095       8     8     0
   0.16894     0.95901    -0.11418    -0.23859    -0.04343       8     8     0
   0.25000     0.95901    -0.12517    -0.29167    -0.09663       8     8     0
   0.33106     0.95901     0.32563     0.05024    -0.21303       8     8     0
   0.40334     0.95901     1.13258     0.70117    -0.24416       8     8     0
   0.45901     0.95901     1.67010     1.14008    -0.13589       8     8     0
   0.49204     0.95901     1.82038     1.26673    -0.02376       8     8     0
   0.50000     0.95901     1.83523     1.28009     0.00561       8     8     0
   0.00000     0.99204    -0.00799    -0.00883    -0.01263       8     8     0
   0.00796     0.99204    -0.00039    -0.01357    -0.01234       8     8     0
   0.04099     0.99204    -0.00731    -0.05964    -0.01003       8     8     0
   0.09666     0.99204    -0.04643    -0.13601    -0.00771       8     8     0
   0.16894     0.99204    -0.12731    -0.24305    -0.00774       8     8     0
   0.25000     0.99204    -0.16149    -0.31570    -0.01797       8     8     0
   0.33106     0.99204     0.28924     0.02296    -0.04238       8     8     0
   0.40334     0.99204     1.15917     0.71739    -0.04984       8     8     0
   0.45901     0.99204     1.75758     1.20079    -0.02806       8     8     0
   0.49204     0.99204     1.92547     1.34017    -0.00500       8     8     0
   0.50000     0.99204     1.94165     1.35406     0.00110       8     8     0
   0.00000     1.00000    -0.00896    -0.00800     0.00074       8     8     0
   0.00796     1.00000    -0.00087    -0.01269     0.00029       8     8     0
   0.04099     1.00000    -0.00662    -0.05895    -0.00084       8     8     0
   0.09666     1.00000    -0.04484    -0.13537    -0.00174       8     8     0
   0.16894     1.00000    -0.12697    -0.24293    -0.00046       8     8     0
   0.25000     1.00000    -0.16538    -0.31807     0.00286       8     8     0
   0.33106     1.00000     0.28544     0.02047     0.00216       8     8     0
   0.40334     1.00000     1.16119     0.71875    -0.00133       8     8     0
   0.45901     1.00000     1.76306     1.20462    -0.00197       8     8     0
   0.49204     1.00000     1.93103     1.34402    -0.00112       8     8     0
   0.50000     1.00000     1.94709     1.35776    -0.00090       8     8     0
ZONE T= "IEL     3",  I=11,  J=11,  SOLUTIONTIME=   1.06020,  DATAPACKING = POINT
   0.50000     0.50000    -0.00241    -0.00248    -0.00248       8     8     0
   0.50796     0.50000    -0.00088    -0.00112    -0.00135       8     8     0
   0.54099     0.50000    -0.00008    -0.00048    -0.00055       8     8     0
   0.59666     0.50000     0.00609     0.00084     0.00450       8     8     0
   0.66894     0.50000     0.04299     0.00485     0.03014       8     8     0
   0.75000     0.50000     0.21226     0.00659     0.14618       8     8     0
   0.83106     0.50000     0.71118     0.01210     0.49364       8     8     0
   0.90334     0.50000     1.40239     0.01240     0.97770       8     8     0
   0.95901     0.50000     1.83593     0.00675     1.28171       8     8     0
   0.99204     0.50000     1.94196     0.00127     1.35611       8     8     0
   1.00000     0.50000     1.94735    -0.00086     1.35990       8     8     0
   0.50000     0.50796    -0.00088    -0.00135    -0.00112       8     8     0
   0.50796     0.50796     0.00058    -0.00007    -0.00007       8     8     0
   0.54099     0.50796     0.00149     0.00060     0.00089       8     8     0
   0.59666     0.50796     0.00626     0.00172     0.00458       8     8     0
   0.66894     0.50796     0.04244     0.00834     0.02937       8     8     0
   0.75000     0.50796     0.21772     0.02829     0.15092       8     8     0
   0.83106     0.50796     0.72079     0.06116     0.50253       8     8     0
   0.90334     0.50796     1.40874     0.06452     0.98463       8     8     0
   0.95901     0.50796     1.83973     0.03461     1.28712       8     8     0
   0.99204     0.50796     1.94518     0.00699     1.36121       8     8     0
   1.00000     0.50796     1.95029    -0.00059     1.36480       8     8     0
   0.50000     0.54099    -0.00008    -0.00055    -0.00048       8     8     0
   0.50796     0.54099     0.00149     0.00089     0.00060       8     8     0
   0.54099     0.54099     0.00327     0.00183     0.00183       8     8     0
   0.59666     0.54099     0.01119     0.00688     0.00775       8     8     0
   0.66894     0.54099     0.06154     0.03331     0.04335       8     8     0
   0.75000     0.54099     0.27031     0.12163     0.18988       8     8     0
   0.83106     0.54099     0.77528     0.25509     0.54540       8     8     0
   0.90334     0.54099     1.39800     0.27409     0.98382       8     8     0
   0.95901     0.54099     1.77143     0.14913     1.24649       8     8     0
   0.99204     0.54099     1.86143     0.03050     1.30979       8     8     0
   1.00000     0.54099     1.86488     0.00045     1.31221       8     8     0
   0.50000     0.59666     0.00609     0.00450     0.00084       8     8     0
   0.50796     0.59666     0.00626     0.00458     0.00172       8     8     0
   0.54099     0.59666     0.01119     0.00775     0.00688       8     8     0
   0.59666     0.59666     0.04013     0.02810     0.02810       8     8     0
   0.66894     0.59666     0.15152     0.10482     0.10731       8     8     0
   0.75000     0.59666     0.46109     0.30477     0.32596       8     8     0
   0.83106     0.59666     0.92115     0.53101     0.65063       8     8     0
   0.90334     0.59666     1.26735     0.51608     0.89527       8     8     0
   0.95901     0.59666     1.40793     0.26984     0.99450       8     8     0
   0.99204     0.59666     1.43655     0.05487     1.01463       8     8     0
   1.00000     0.59666     1.43667     0.00103     1.01473       8     8     0
   0.50000     0.66894     0.04299     0.03014     0.00485       8     8     0
   0.50796     0.66894     0.04244     0.02937     0.00834       8     8     0
   0.54099     0.66894     0.06154     0.04335     0.03331       8     8     0
   0.59666     0.66894     0.15152     0.10731     0.10482       8     8     0
   0.66894     0.66894     0.40528     0.28607     0.28607       8     8     0
   0.75000     0.66894     0.80242     0.56466     0.56751       8     8     0
   0.83106     0.66894     1.01794     0.69253     0.72008       8     8     0
   0.90334     0.66894     0.91883     0.52792     0.64964       8     8     0
   0.95901     0.66894     0.77858     0.24692     0.55055       8     8     0
   0.99204     0.66894     0.73957     0.04909     0.52308       8     8     0
   1.00000     0.66894     0.73754     0.00017     0.52164       8     8     0
   0.50000     0.75000     0.21226     0.14618     0.00659       8     8     0
   0.50796     0.75000     0.21772     0.15092     0.02829       8     8     0
   0.54099     0.75000     0.27031     0.18988     0.12163       8     8     0
   0.59666     0.75000     0.46109     0.32596     0.30477       8     8     0
   0.66894     0.75000     0.80242     0.56751     0.56466       8     8     0
   0.75000     0.75000     0.99853     0.70561     0.70561       8     8     0
   0.83106     0.75000     0.79642     0.56062     0.56289       8     8     0
   0.90334     0.75000     0.45520     0.29989     0.32208       8     8     0
   0.95901     0.75000     0.26998     0.11655     0.19092       8     8     0
   0.99204     0.75000     0.22773     0.02197     0.16085       8     8     0
   1.00000     0.75000     0.22650    -0.00046     0.15999       8     8     0
   0.50000     0.83106     0.71118     0.49364     0.01210       8     8     0
   0.50796     0.83106     0.72079     0.50253     0.06116       8     8     0
   0.54099     0.83106     0.77528     0.54540     0.25509       8     8     0
   0.59666     0.83106     0.92115     0.65063     0.53101       8     8     0
   0.66894     0.83106     1.01794     0.72008     0.69253       8     8     0
   0.75000     0.83106     0.79642     0.56289     0.56062       8     8     0
   0.83106     0.83106     0.40010     0.28268     0.28268       8     8     0
   0.90334     0.83106     0.14761     0.10224     0.10405       8     8     0
   0.95901     0.83106     0.06202     0.03206     0.04396       8     8     0
   0.99204     0.83106     0.04552     0.00557     0.03225       8     8     0
   1.00000     0.83106     0.04516    -0.00007     0.03204       8     8     0
   0.50000     0.90334     1.40239     0.97770     0.01240       8     8     0
   0.50796     0.90334     1.40874     0.98463     0.06452       8     8     0
   0.54099     0.90334     1.39800     0.98382     0.27409       8     8     0
   0.59666     0.90334     1.26735     0.89527     0.51608       8     8     0
   0.66894     0.90334     0.91883     0.64964     0.52792       8     8     0
   0.75000     0.90334     0.45520     0.32208     0.29989       8     8     0
   0.83106     0.90334     0.14761     0.10405     0.10224       8     8     0
   0.90334     0.90334     0.03933     0.02769     0.02769       8     8     0
   0.95901     0.90334     0.01173     0.00721     0.00818       8     8     0
   0.99204     0.90334     0.00691     0.00127     0.00497       8     8     0
   1.00000     0.90334     0.00658     0.00018     0.00457       8     8     0
   0.50000     0.95901     1.83593     1.28171     0.00675       8     8     0
   0.50796     0.95901     1.83973     1.28712     0.03461       8     8     0
   0.54099     0.95901     1.77143     1.24649     0.14913       8     8     0
   0.59666     0.95901     1.40793     0.99450     0.26984       8     8     0
   0.66894     0.95901     0.77858     0.55055     0.24692       8     8     0
   0.75000     0.95901     0.26998     0.19092     0.11655       8     8     0
   0.83106     0.95901     0.06202     0.04396     0.03206       8     8     0
   0.90334     0.95901     0.01173     0.00818     0.00721       8     8     0
   0.95901     0.95901     0.00196     0.00084     0.00084       8     8     0
   0.99204     0.95901     0.00110     0.00015     0.00014       8     8     0
   1.00000     0.95901     0.00089     0.00006    -0.00021       8     8     0
   0.50000     0.99204     1.94196     1.35611     0.00127       8     8     0
   0.50796     0.99204     1.94518     1.36121     0.00699       8     8     0
   0.54099     0.99204     1.86143     1.30979     0.03050       8     8     0
   0.59666     0.99204     1.43655     1.01463     0.05487       8     8     0
   0.66894     0.99204     0.73957     0.52308     0.04909       8     8     0
   0.75000     0.99204     0.22773     0.16085     0.02197       8     8     0
   0.83106     0.99204     0.04552     0.03225     0.00557       8     8     0
   0.90334     0.99204     0.00691     0.00497     0.00127       8     8     0
   0.95901     0.99204     0.00110     0.00014     0.00015       8     8     0
   0.99204     0.99204     0.00127     0.00004     0.00004       8     8     0
   1.00000     0.99204     0.00112    -0.00000    -0.00004       8     8     0
   0.50000     1.00000     1.94735     1.35990    -0.00086       8     8     0
   0.50796     1.00000     1.95029     1.36480    -0.00059       8     8     0
   0.54099     1.00000     1.86488     1.31221     0.00045       8     8     0
   0.59666     1.00000     1.43667     1.01473     0.00103       8     8     0
   0.66894     1.00000     0.73754     0.52164     0.00017       8     8     0
   0.75000     1.00000     0.22650     0.15999    -0.00046       8     8     0
   0.83106     1.00000     0.04516     0.03204    -0.00007       8     8     0
   0.90334     1.00000     0.00658     0.00457     0.00018       8     8     0
   0.95901     1.00000     0.00089    -0.00021     0.00006       8     8     0
   0.99204     1.00000     0.00112    -0.00004    -0.00000       8     8     0
   1.00000     1.00000     0.00097     0.00000     0.00000       8     8     0
ZONE T= "IEL     4",  I=11,  J=11,  SOLUTIONTIME=   1.06020,  DATAPACKING = POINT
   0.50000     0.00000     0.00582    -0.00665    -0.00599       8     8     0
   0.50796     0.00000     0.00732    -0.00802    -0.00739       8     8     0
   0.54099     0.00000     0.01660    -0.01820    -0.01656       8     8     0
   0.59666     0.00000     0.05053    -0.05720    -0.05081       8     8     0
   0.66894     0.00000     0.12780    -0.15383    -0.12755       8     8     0
   0.75000     0.00000     0.18430    -0.25306    -0.18062       8     8     0
   0.83106     0.00000     0.13755    -0.24529    -0.13508       8     8     0
   0.90334     0.00000     0.04974    -0.15403    -0.05791       8     8     0
   0.95901     0.00000     0.00330    -0.06635    -0.01893       8     8     0
   0.99204     0.00000    -0.00799    -0.01263    -0.00883       8     8     0
   1.00000     0.00000    -0.00896     0.00074    -0.00800       8     8     0