TITLE = "MESH AND SOLUTIONS"
VARIABLES = "X", "Y", "PRESSURE", "U", "V",  "N", "M", "PROC"
ZONE T= "IEL     1",  I=11,  J=11,  SOLUTIONTIME=   0.47020,  DATAPACKING = POINT
   0.00000     0.00000     0.00032    -0.00000    -0.00000       8     8     0
   0.00796     0.00000     0.00015    -0.00009    -0.00002       8     8     0
   0.04099     0.00000     0.00034     0.00051     0.00037       8     8     0
   0.09666     0.00000     0.00036     0.00046     0.00026       8     8     0
   0.16894     0.00000    -0.00126    -0.00103    -0.00143       8     8     0
   0.25000     0.00000     0.00244     0.00184     0.00179       8     8     0
   0.33106     0.00000     0.02345     0.01646     0.01737       8     8     0
   0.40334     0.00000     0.09319     0.06605     0.06558       8     8     0
   0.45901     0.00000     0.22716     0.16047     0.16007       8     8     0
   0.49204     0.00000     0.35239     0.24905     0.24869       8     8     0
   0.50000     0.00000     0.38718     0.27401     0.27308       8     8     0
   0.00000     0.00796     0.00015    -0.00002    -0.00009       8     8     0
   0.00796     0.00796     0.00007    -0.00009    -0.00009       8     8     0
   0.04099     0.00796     0.00001     0.00010     0.00001       8     8     0
   0.09666     0.00796    -0.00001     0.00004    -0.00002       8     8     0
   0.16894     0.00796     0.00018     0.00003    -0.00005       8     8     0
   0.25000     0.00796     0.00341     0.00249     0.00247       8     8     0
   0.33106     0.00796     0.02523     0.01774     0.01798       8     8     0
   0.40334     0.00796     0.10737     0.07607     0.07572       8     8     0
   0.45901     0.00796     0.25674     0.18138     0.18163       8     8     0
   0.49204     0.00796     0.38932     0.27520     0.27537       8     8     0
   0.50000     0.00796     0.42540     0.30104     0.30068       8     8     0
   0.00000     0.04099     0.00034     0.00037     0.00051       8     8     0
   0.00796     0.04099     0.00001     0.00001     0.00010       8     8     0
   0.04099     0.04099    -0.00018    -0.00011    -0.00011       8     8     0
   0.09666     0.04099     0.00018     0.00012     0.00021       8     8     0
   0.16894     0.04099     0.00105     0.00067     0.00063       8     8     0
   0.25000     0.04099     0.00757     0.00544     0.00545       8     8     0
   0.33106     0.04099     0.05075     0.03579     0.03584       8     8     0
   0.40334     0.04099     0.18579     0.13150     0.13117       8     8     0
   0.45901     0.04099     0.38967     0.27541     0.27570       8     8     0
   0.49204     0.04099     0.54684     0.38659     0.38697       8     8     0
   0.50000     0.04099     0.58656     0.41496     0.41504       8     8     0
   0.00000     0.09666     0.00036     0.00026     0.00046       8     8     0
   0.00796     0.09666    -0.00001    -0.00002     0.00004       8     8     0
   0.04099     0.09666     0.00018     0.00021     0.00012       8     8     0
   0.09666     0.09666     0.00013     0.00025     0.00025       8     8     0
   0.16894     0.09666     0.00376     0.00259     0.00254       8     8     0
   0.25000     0.09666     0.03029     0.02139     0.02134       8     8     0
   0.33106     0.09666     0.14229     0.10069     0.10083       8     8     0
   0.40334     0.09666     0.38910     0.27509     0.27517       8     8     0
   0.45901     0.09666     0.66037     0.46697     0.46675       8     8     0
   0.49204     0.09666     0.81738     0.57783     0.57780       8     8     0
   0.50000     0.09666     0.85082     0.60133     0.60149       8     8     0
   0.00000     0.16894    -0.00126    -0.00143    -0.00103       8     8     0
   0.00796     0.16894     0.00018    -0.00005     0.00003       8     8     0
   0.04099     0.16894     0.00105     0.00063     0.00067       8     8     0
   0.09666     0.16894     0.00376     0.00254     0.00259       8     8     0
   0.16894     0.16894     0.02529     0.01808     0.01808       8     8     0
   0.25000     0.16894     0.12183     0.08592     0.08616       8     8     0
   0.33106     0.16894     0.38959     0.27569     0.27515       8     8     0
   0.40334     0.16894     0.74281     0.52509     0.52536       8     8     0
   0.45901     0.16894     0.95387     0.67455     0.67484       8     8     0
   0.49204     0.16894     0.99932     0.70660     0.70682       8     8     0
   0.50000     0.16894     0.99970     0.70641     0.70706       8     8     0
   0.00000     0.25000     0.00244     0.00179     0.00184       8     8     0
   0.00796     0.25000     0.00341     0.00247     0.00249       8     8     0
   0.04099     0.25000     0.00757     0.00545     0.00544       8     8     0
   0.09666     0.25000     0.03029     0.02134     0.02139       8     8     0
   0.16894     0.25000     0.12183     0.08616     0.08592       8     8     0
   0.25000     0.25000     0.38993     0.27582     0.27582       8     8     0
   0.33106     0.25000     0.78415     0.55432     0.55472       8     8     0
   0.40334     0.25000     0.99434     0.70324     0.70295       8     8     0
   0.45901     0.25000     0.93474     0.66086     0.66069       8     8     0
   0.49204     0.25000     0.81403     0.57571     0.57547       8     8     0
   0.50000     0.25000     0.77836     0.55084     0.55029       8     8     0
   0.00000     0.33106     0.02345     0.01737     0.01646       8     8     0
   0.00796     0.33106     0.02523     0.01798     0.01774       8     8     0
   0.04099     0.33106     0.05075     0.03584     0.03579       8     8     0
   0.09666     0.33106     0.14229     0.10083     0.10069       8     8     0
   0.16894     0.33106     0.38959     0.27515     0.27569       8     8     0
   0.25000     0.33106     0.78415     0.55472     0.55432       8     8     0
   0.33106     0.33106     0.99807     0.70559     0.70559       8     8     0
   0.40334     0.33106     0.84722     0.59918     0.59926       8     8     0
   0.45901     0.33106     0.58189     0.41141     0.41165       8     8     0
   0.49204     0.33106     0.42073     0.29753     0.29756       8     8     0
   0.50000     0.33106     0.38410     0.27210     0.27162       8     8     0
   0.00000     0.40334     0.09319     0.06558     0.06605       8     8     0
   0.00796     0.40334     0.10737     0.07572     0.07607       8     8     0
   0.04099     0.40334     0.18579     0.13117     0.13150       8     8     0
   0.09666     0.40334     0.38910     0.27517     0.27509       8     8     0
   0.16894     0.40334     0.74281     0.52536     0.52509       8     8     0
   0.25000     0.40334     0.99434     0.70295     0.70324       8     8     0
   0.33106     0.40334     0.84722     0.59926     0.59918       8     8     0
   0.40334     0.40334     0.49866     0.35244     0.35244       8     8     0
   0.45901     0.40334     0.25808     0.18261     0.18235       8     8     0
   0.49204     0.40334     0.15813     0.11172     0.11179       8     8     0
   0.50000     0.40334     0.13926     0.09791     0.09848       8     8     0
   0.00000     0.45901     0.22716     0.16007     0.16047       8     8     0
   0.00796     0.45901     0.25674     0.18163     0.18138       8     8     0
   0.04099     0.45901     0.38967     0.27570     0.27541       8     8     0
   0.09666     0.45901     0.66037     0.46675     0.46697       8     8     0
   0.16894     0.45901     0.95387     0.67484     0.67455       8     8     0
   0.25000     0.45901     0.93474     0.66069     0.66086       8     8     0
   0.33106     0.45901     0.58189     0.41165     0.41141       8     8     0
   0.40334     0.45901     0.25808     0.18235     0.18261       8     8     0
   0.45901     0.45901     0.10924     0.07734     0.07734       8     8     0
   0.49204     0.45901     0.05906     0.04170     0.04177       8     8     0
   0.50000     0.45901     0.05097     0.03538     0.03602       8     8     0
   0.00000     0.49204     0.35239     0.24869     0.24905       8     8     0
   0.00796     0.49204     0.38932     0.27537     0.27520       8     8     0
   0.04099     0.49204     0.54684     0.38697     0.38659       8     8     0
   0.09666     0.49204     0.81738     0.57780     0.57783       8     8     0
   0.16894     0.49204     0.99932     0.70682     0.70660       8     8     0
   0.25000     0.49204     0.81403     0.57547     0.57571       8     8     0
   0.33106     0.49204     0.42073     0.29756     0.29753       8     8     0
   0.40334     0.49204     0.15813     0.11179     0.11172       8     8     0
   0.45901     0.49204     0.05906     0.04177     0.04170       8     8     0
   0.49204     0.49204     0.02923     0.02066     0.02066       8     8     0
   0.50000     0.49204     0.02476     0.01728     0.01750       8     8     0
   0.00000     0.50000     0.38718     0.27308     0.27401       8     8     0
   0.00796     0.50000     0.42540     0.30068     0.30104       8     8     0
   0.04099     0.50000     0.58656     0.41504     0.41496       8     8     0
   0.09666     0.50000     0.85082     0.60149     0.60133       8     8     0
   0.16894     0.50000     0.99970     0.70706     0.70641       8     8     0
   0.25000     0.50000     0.77836     0.55029     0.55084       8     8     0
   0.33106     0.50000     0.38410     0.27162     0.27210       8     8     0
   0.40334     0.50000     0.13926     0.09848     0.09791       8     8     0
   0.45901     0.50000     0.05097     0.03602     0.03538       8     8     0
   0.49204     0.50000     0.02476     0.01750     0.01728       8     8     0
   0.50000     0.50000     0.02082     0.01460     0.01460       8     8     0
ZONE T= "IEL     2",  I=11,  J=11,  SOLUTIONTIME=   0.47020,  DATAPACKING = POINT
   0.00000     0.50000     0.38546     0.27119     0.27176       8     8     0
   0.00796     0.50000     0.42365     0.29883     0.29882       8     8     0
   0.04099     0.50000     0.58636     0.41467     0.41440       8     8     0
   0.09666     0.50000     0.85233     0.60263     0.60309       8     8     0
   0.16894     0.50000     0.99972     0.70706     0.70703       8     8     0
   0.25000     0.50000     0.77794     0.55001     0.54991       8     8     0
   0.33106     0.50000     0.38442     0.27184     0.27182       8     8     0
   0.40334     0.50000     0.13905     0.09833     0.09836       8     8     0
   0.45901     0.50000     0.05058     0.03576     0.03577       8     8     0
   0.49204     0.50000     0.02463     0.01742     0.01741       8     8     0
   0.50000     0.50000     0.02074     0.01457     0.01465       8     8     0
   0.00000     0.50796     0.42387     0.29916     0.29951       8     8     0
   0.00796     0.50796     0.46317     0.32745     0.32728       8     8     0
   0.04099     0.50796     0.62704     0.44369     0.44320       8     8     0
   0.09666     0.50796     0.88166     0.62329     0.62342       8     8     0
   0.16894     0.50796     0.99489     0.70357     0.70356       8     8     0
   0.25000     0.50796     0.74137     0.52417     0.52423       8     8     0
   0.33106     0.50796     0.34984     0.24738     0.24735       8     8     0
   0.40334     0.50796     0.12162     0.08603     0.08600       8     8     0
   0.45901     0.50796     0.04299     0.03037     0.03041       8     8     0
   0.49204     0.50796     0.02050     0.01452     0.01450       8     8     0
   0.50000     0.50796     0.01716     0.01211     0.01213       8     8     0
   0.00000     0.54099     0.58700     0.41523     0.41545       8     8     0
   0.00796     0.54099     0.62737     0.44371     0.44400       8     8     0
   0.04099     0.54099     0.78698     0.55656     0.55671       8     8     0
   0.09666     0.54099     0.97488     0.68923     0.68931       8     8     0
   0.16894     0.54099     0.93238     0.65915     0.65928       8     8     0
   0.25000     0.54099     0.57710     0.40818     0.40812       8     8     0
   0.33106     0.54099     0.22558     0.15941     0.15949       8     8     0
   0.40334     0.54099     0.06710     0.04754     0.04744       8     8     0
   0.45901     0.54099     0.02075     0.01459     0.01468       8     8     0
   0.49204     0.54099     0.00909     0.00648     0.00643       8     8     0
   0.50000     0.54099     0.00719     0.00545     0.00510       8     8     0
   0.00000     0.59666     0.85255     0.60300     0.60266       8     8     0
   0.00796     0.59666     0.88175     0.62324     0.62332       8     8     0
   0.04099     0.59666     0.97473     0.68900     0.68923       8     8     0
   0.09666     0.59666     0.97299     0.68816     0.68820       8     8     0
   0.16894     0.59666     0.70355     0.49733     0.49750       8     8     0
   0.25000     0.59666     0.31855     0.22543     0.22516       8     8     0
   0.33106     0.59666     0.09112     0.06431     0.06445       8     8     0
   0.40334     0.59666     0.02095     0.01489     0.01482       8     8     0
   0.45901     0.59666     0.00473     0.00329     0.00334       8     8     0
   0.49204     0.59666     0.00194     0.00141     0.00137       8     8     0
   0.50000     0.59666     0.00118     0.00124     0.00083       8     8     0
   0.00000     0.66894     0.99972     0.70735     0.70694       8     8     0
   0.00796     0.66894     0.99479     0.70375     0.70342       8     8     0
   0.04099     0.66894     0.93215     0.65923     0.65898       8     8     0
   0.09666     0.66894     0.70351     0.49753     0.49725       8     8     0
   0.16894     0.66894     0.35505     0.25108     0.25105       8     8     0
   0.25000     0.66894     0.10693     0.07557     0.07568       8     8     0
   0.33106     0.66894     0.02056     0.01456     0.01454       8     8     0
   0.40334     0.66894     0.00311     0.00218     0.00219       8     8     0
   0.45901     0.66894     0.00045     0.00034     0.00032       8     8     0
   0.49204     0.66894     0.00029     0.00019     0.00020       8     8     0
   0.50000     0.66894     0.00024     0.00009     0.00017       8     8     0
   0.00000     0.75000     0.77782     0.54955     0.55007       8     8     0
   0.00796     0.75000     0.74113     0.52378     0.52417       8     8     0
   0.04099     0.75000     0.57699     0.40789     0.40822       8     8     0
   0.09666     0.75000     0.31878     0.22533     0.22558       8     8     0
   0.16894     0.75000     0.10694     0.07564     0.07561       8     8     0
   0.25000     0.75000     0.02032     0.01433     0.01433       8     8     0
   0.33106     0.75000     0.00254     0.00184     0.00179       8     8     0
   0.40334     0.75000     0.00016     0.00008     0.00012       8     8     0
   0.45901     0.75000     0.00017     0.00014     0.00013       8     8     0
   0.49204     0.75000    -0.00002    -0.00003    -0.00001       8     8     0
   0.50000     0.75000     0.00009    -0.00006     0.00007       8     8     0
   0.00000     0.83106     0.38421     0.27187     0.27157       8     8     0
   0.00796     0.83106     0.34988     0.24761     0.24723       8     8     0
   0.04099     0.83106     0.22591     0.15989     0.15949       8     8     0
   0.09666     0.83106     0.09110     0.06442     0.06428       8     8     0
   0.16894     0.83106     0.02042     0.01446     0.01446       8     8     0
   0.25000     0.83106     0.00256     0.00183     0.00183       8     8     0
   0.33106     0.83106     0.00016     0.00010     0.00011       8     8     0
   0.40334     0.83106     0.00005     0.00004     0.00003       8     8     0
   0.45901     0.83106    -0.00002    -0.00002    -0.00001       8     8     0
   0.49204     0.83106    -0.00003    -0.00002    -0.00002       8     8     0
   0.50000     0.83106    -0.00003     0.00000    -0.00003       8     8     0
   0.00000     0.90334     0.13970     0.09874     0.09889       8     8     0
   0.00796     0.90334     0.12206     0.08619     0.08649       8     8     0
   0.04099     0.90334     0.06701     0.04727     0.04764       8     8     0
   0.09666     0.90334     0.02077     0.01471     0.01479       8     8     0
   0.16894     0.90334     0.00319     0.00223     0.00222       8     8     0
   0.25000     0.90334     0.00021     0.00014     0.00013       8     8     0
   0.33106     0.90334     0.00002     0.00001     0.00002       8     8     0
   0.40334     0.90334    -0.00000     0.00001     0.00000       8     8     0
   0.45901     0.90334    -0.00001    -0.00001    -0.00001       8     8     0
   0.49204     0.90334     0.00002     0.00002     0.00002       8     8     0
   0.50000     0.90334    -0.00000     0.00002     0.00001       8     8     0
   0.00000     0.95901     0.05018     0.03522     0.03550       8     8     0
   0.00796     0.95901     0.04262     0.03000     0.03006       8     8     0
   0.04099     0.95901     0.02054     0.01452     0.01432       8     8     0
   0.09666     0.95901     0.00479     0.00334     0.00333       8     8     0
   0.16894     0.95901     0.00056     0.00039     0.00043       8     8     0
   0.25000     0.95901     0.00011     0.00008     0.00009       8     8     0
   0.33106     0.95901    -0.00003    -0.00001    -0.00003       8     8     0
   0.40334     0.95901     0.00000    -0.00000    -0.00000       8     8     0
   0.45901     0.95901     0.00001     0.00000     0.00001       8     8     0
   0.49204     0.95901     0.00000     0.00001     0.00000       8     8     0
   0.50000     0.95901     0.00000    -0.00001    -0.00001       8     8     0
   0.00000     0.99204     0.02414     0.01768     0.01657       8     8     0
   0.00796     0.99204     0.02003     0.01453     0.01390       8     8     0
   0.04099     0.99204     0.00891     0.00633     0.00639       8     8     0
   0.09666     0.99204     0.00206     0.00152     0.00147       8     8     0
   0.16894     0.99204     0.00025     0.00017     0.00015       8     8     0
   0.25000     0.99204    -0.00008    -0.00003    -0.00008       8     8     0
   0.33106     0.99204    -0.00000    -0.00001     0.00001       8     8     0
   0.40334     0.99204     0.00003     0.00002     0.00003       8     8     0
   0.45901     0.99204    -0.00000    -0.00000    -0.00001       8     8     0
   0.49204     0.99204    -0.00001    -0.00002    -0.00000       8     8     0
   0.50000     0.99204    -0.00002     0.00001    -0.00001       8     8     0
   0.00000     1.00000     0.02090     0.01557     0.01405       8     8     0
   0.00796     1.00000     0.01700     0.01228     0.01187       8     8     0
   0.04099     1.00000     0.00685     0.00461     0.00564       8     8     0
   0.09666     1.00000     0.00129     0.00104     0.00131       8     8     0
   0.16894     1.00000     0.00019     0.00010     0.00004       8     8     0
   0.25000     1.00000     0.00004     0.00007    -0.00010       8     8     0
   0.33106     1.00000     0.00000    -0.00002     0.00003       8     8     0
   0.40334     1.00000    -0.00001     0.00000     0.00003       8     8     0
   0.45901     1.00000     0.00001     0.00001    -0.00001       8     8     0
   0.49204     1.00000    -0.00003    -0.00004     0.00000       8     8     0
   0.50000     1.00000    -0.00005     0.00003    -0.00000       8     8     0
ZONE T= "IEL     3",  I=11,  J=11,  SOLUTIONTIME=   0.47020,  DATAPACKING = POINT
   0.50000     0.50000     0.02068     0.01462     0.01462       8     8     0
   0.50796     0.50000     0.01715     0.01213     0.01213       8     8     0
   0.54099     0.50000     0.00742     0.00525     0.00525       8     8     0
   0.59666     0.50000     0.00142     0.00100     0.00100       8     8     0
   0.66894     0.50000     0.00019     0.00013     0.00013       8     8     0
   0.75000     0.50000     0.00002     0.00002     0.00002       8     8     0
   0.83106     0.50000    -0.00002    -0.00002    -0.00001       8     8     0
   0.90334     0.50000     0.00001     0.00001     0.00001       8     8     0
   0.95901     0.50000    -0.00000    -0.00000    -0.00000       8     8     0
   0.99204     0.50000    -0.00001    -0.00001    -0.00000       8     8     0
   1.00000     0.50000    -0.00001    -0.00001    -0.00000       8     8     0
   0.50000     0.50796     0.01715     0.01213     0.01213       8     8     0
   0.50796     0.50796     0.01414     0.01000     0.01000       8     8     0
   0.54099     0.50796     0.00595     0.00421     0.00421       8     8     0
   0.59666     0.50796     0.00110     0.00078     0.00078       8     8     0
   0.66894     0.50796     0.00017     0.00012     0.00012       8     8     0
   0.75000     0.50796     0.00001     0.00001     0.00001       8     8     0
   0.83106     0.50796    -0.00002    -0.00001    -0.00001       8     8     0
   0.90334     0.50796     0.00001     0.00001     0.00001       8     8     0
   0.95901     0.50796    -0.00001    -0.00001    -0.00001       8     8     0
   0.99204     0.50796    -0.00001    -0.00001    -0.00000       8     8     0
   1.00000     0.50796    -0.00001    -0.00001    -0.00000       8     8     0
   0.50000     0.54099     0.00742     0.00525     0.00525       8     8     0
   0.50796     0.54099     0.00595     0.00421     0.00421       8     8     0
   0.54099     0.54099     0.00225     0.00159     0.00159       8     8     0
   0.59666     0.54099     0.00040     0.00029     0.00029       8     8     0
   0.66894     0.54099     0.00009     0.00006     0.00006       8     8     0
   0.75000     0.54099    -0.00002    -0.00001    -0.00002       8     8     0
   0.83106     0.54099     0.00000     0.00000     0.00000       8     8     0
   0.90334     0.54099     0.00001     0.00000     0.00000       8     8     0
   0.95901     0.54099    -0.00001    -0.00001    -0.00001       8     8     0
   0.99204     0.54099     0.00000     0.00000     0.00000       8     8     0
   1.00000     0.54099     0.00000     0.00000     0.00000       8     8     0
   0.50000     0.59666     0.00142     0.00100     0.00100       8     8     0
   0.50796     0.59666     0.00110     0.00078     0.00078       8     8     0
   0.54099     0.59666     0.00040     0.00029     0.00029       8     8     0
   0.59666     0.59666     0.00012     0.00009     0.00009       8     8     0
   0.66894     0.59666     0.00000     0.00000    -0.00000       8     8     0
   0.75000     0.59666    -0.00001    -0.00001    -0.00001       8     8     0
   0.83106     0.59666     0.00001     0.00001     0.00001       8     8     0
   0.90334     0.59666    -0.00001    -0.00001    -0.00000       8     8     0
   0.95901     0.59666     0.00000     0.00000     0.00000       8     8     0
   0.99204     0.59666     0.00000     0.00000     0.00000       8     8     0
   1.00000     0.59666     0.00000     0.00000     0.00000       8     8     0
   0.50000     0.66894     0.00019     0.00013     0.00013       8     8     0
   0.50796     0.66894     0.00017     0.00012     0.00012       8     8     0
   0.54099     0.66894     0.00009     0.00006     0.00006       8     8     0
   0.59666     0.66894     0.00000    -0.00000     0.00000       8     8     0
   0.66894     0.66894    -0.00001    -0.00001    -0.00001       8     8     0
   0.75000     0.66894     0.00001     0.00000     0.00000       8     8     0
   0.83106     0.66894    -0.00000    -0.00000    -0.00000       8     8     0
   0.90334     0.66894     0.00000     0.00000     0.00000       8     8     0
   0.95901     0.66894     0.00000     0.00000     0.00000       8     8     0
   0.99204     0.66894    -0.00000    -0.00000    -0.00000       8     8     0
   1.00000     0.66894    -0.00000    -0.00000    -0.00000       8     8     0
   0.50000     0.75000     0.00002     0.00002     0.00002       8     8     0
   0.50796     0.75000     0.00001     0.00001     0.00001       8     8     0
   0.54099     0.75000    -0.00002    -0.00002    -0.00001       8     8     0
   0.59666     0.75000    -0.00001    -0.00001    -0.00001       8     8     0
   0.66894     0.75000     0.00001     0.00000     0.00000       8     8     0
   0.75000     0.75000    -0.00000    -0.00000    -0.00000       8     8     0
   0.83106     0.75000     0.00000     0.00000     0.00000       8     8     0
   0.90334     0.75000     0.00000    -0.00000     0.00000       8     8     0
   0.95901     0.75000    -0.00000    -0.00000    -0.00000       8     8     0
   0.99204     0.75000     0.00000     0.00000     0.00000       8     8     0
   1.00000     0.75000     0.00000     0.00000     0.00000       8     8     0
   0.50000     0.83106    -0.00002    -0.00001    -0.00002       8     8     0
   0.50796     0.83106    -0.00002    -0.00001    -0.00001       8     8     0
   0.54099     0.83106     0.00000     0.00000     0.00000       8     8     0
   0.59666     0.83106     0.00001     0.00001     0.00001       8     8     0
   0.66894     0.83106    -0.00000    -0.00000    -0.00000       8     8     0
   0.75000     0.83106     0.00000     0.00000     0.00000       8     8     0
   0.83106     0.83106    -0.00000    -0.00000    -0.00000       8     8     0
   0.90334     0.83106    -0.00000    -0.00000    -0.00000       8     8     0
   0.95901     0.83106     0.00000     0.00000     0.00000       8     8     0
   0.99204     0.83106     0.00000    -0.00000     0.00000       8     8     0
   1.00000     0.83106    -0.00000    -0.00000     0.00000       8     8     0
   0.50000     0.90334     0.00001     0.00001     0.00001       8     8     0
   0.50796     0.90334     0.00001     0.00001     0.00001       8     8     0
   0.54099     0.90334     0.00001     0.00000     0.00000       8     8     0
   0.59666     0.90334    -0.00001    -0.00000    -0.00001       8     8     0
   0.66894     0.90334     0.00000     0.00000     0.00000       8     8     0
   0.75000     0.90334     0.00000     0.00000    -0.00000       8     8     0
   0.83106     0.90334    -0.00000    -0.00000    -0.00000       8     8     0
   0.90334     0.90334     0.00000     0.00000     0.00000       8     8     0
   0.95901     0.90334    -0.00000    -0.00000    -0.00000       8     8     0
   0.99204     0.90334    -0.00000    -0.00000    -0.00000       8     8     0
   1.00000     0.90334    -0.00000    -0.00000    -0.00000       8     8     0
   0.50000     0.95901    -0.00000    -0.00000    -0.00000       8     8     0
   0.50796     0.95901    -0.00001    -0.00001    -0.00001       8     8     0
   0.54099     0.95901    -0.00001    -0.00001    -0.00001       8     8     0
   0.59666     0.95901     0.00000     0.00000     0.00000       8     8     0
   0.66894     0.95901     0.00000     0.00000     0.00000       8     8     0
   0.75000     0.95901    -0.00000    -0.00000    -0.00000       8     8     0
   0.83106     0.95901     0.00000     0.00000     0.00000       8     8     0
   0.90334     0.95901    -0.00000    -0.00000    -0.00000       8     8     0
   0.95901     0.95901    -0.00000    -0.00000    -0.00000       8     8     0
   0.99204     0.95901     0.00000     0.00000     0.00000       8     8     0
   1.00000     0.95901     0.00000     0.00000     0.00000       8     8     0
   0.50000     0.99204    -0.00001    -0.00000    -0.00001       8     8     0
   0.50796     0.99204    -0.00001    -0.00000    -0.00001       8     8     0
   0.54099     0.99204     0.00000     0.00000     0.00000       8     8     0
   0.59666     0.99204     0.00000     0.00000     0.00000       8     8     0
   0.66894     0.99204    -0.00000    -0.00000    -0.00000       8     8     0
   0.75000     0.99204     0.00000     0.00000     0.00000       8     8     0
   0.83106     0.99204     0.00000     0.00000    -0.00000       8     8     0
   0.90334     0.99204    -0.00000    -0.00000    -0.00000       8     8     0
   0.95901     0.99204     0.00000     0.00000     0.00000       8     8     0
   0.99204     0.99204     0.00000     0.00000     0.00000       8     8     0
   1.00000     0.99204     0.00000    -0.00000    -0.00000       8     8     0
   0.50000     1.00000    -0.00001    -0.00000    -0.00001       8     8     0
   0.50796     1.00000    -0.00001    -0.00000    -0.00001       8     8     0
   0.54099     1.00000     0.00000     0.00000     0.00000       8     8     0
   0.59666     1.00000     0.00000     0.00000     0.00000       8     8     0
   0.66894     1.00000    -0.00000    -0.00000    -0.00000       8     8     0
   0.75000     1.00000     0.00000     0.00000     0.00000       8     8     0
   0.83106     1.00000    -0.00000     0.00000    -0.00000       8     8     0
   0.90334     1.00000    -0.00000    -0.00000    -0.00000       8     8     0
   0.95901     1.00000     0.00000     0.00000     0.00000       8     8     0
   0.99204     1.00000     0.00000    -0.00000    -0.00000       8     8     0
   1.00000     1.00000    -0.00000    -0.00000    -0.00000       8     8     0
ZONE T= "IEL     4",  I=11,  J=11,  SOLUTIONTIME=   0.47020,  DATAPACKING = POINT
   0.50000     0.00000     0.38546     0.27176     0.27119       8     8     0
   0.50796     0.00000     0.42387     0.29951     0.29916       8     8     0
   0.54099     0.00000     0.58700     0.41545     0.41523       8     8     0
   0.59666     0.00000     0.85255     0.60266     0.60300       8     8     0
   0.66894     0.00000     0.99972     0.70694     0.70735       8     8     0
   0.75000     0.00000     0.77782     0.55007     0.54955       8     8     0
   0.83106     0.00000     0.38421     0.27157     0.27187       8     8     0
   0.90334     0.00000     0.13970     0.09889     0.09874       8     8     0
   0.95901     0.00000     0.05018     0.03550     0.03522       8     8     0
   0.99204     0.00000     0.02414     0.01657     0.01768       8     8     0
   1.00000     0.00000     0.02090     0.01405     0.01557       8     8     0