TITLE = "MESH AND SOLUTIONS"
VARIABLES = "X", "Y", "PRESSURE", "U", "V",  "N", "M", "PROC"
ZONE T= "IEL     1",  I=11,  J=11,  SOLUTIONTIME=   0.42020,  DATAPACKING = POINT
   0.00000     0.00000     0.00035     0.00053     0.00053       8     8     0
   0.00796     0.00000     0.00031     0.00044     0.00023       8     8     0
   0.04099     0.00000     0.00038     0.00043     0.00011       8     8     0
   0.09666     0.00000    -0.00129    -0.00079    -0.00124       8     8     0
   0.16894     0.00000     0.00134     0.00090     0.00078       8     8     0
   0.25000     0.00000     0.01890     0.01334     0.01421       8     8     0
   0.33106     0.00000     0.09056     0.06407     0.06380       8     8     0
   0.40334     0.00000     0.28013     0.19806     0.19738       8     8     0
   0.45901     0.00000     0.52964     0.37443     0.37473       8     8     0
   0.49204     0.00000     0.69735     0.49351     0.49301       8     8     0
   0.50000     0.00000     0.73611     0.52121     0.52011       8     8     0
   0.00000     0.00796     0.00031     0.00023     0.00044       8     8     0
   0.00796     0.00796     0.00010    -0.00004    -0.00004       8     8     0
   0.04099     0.00796     0.00011    -0.00003    -0.00014       8     8     0
   0.09666     0.00796     0.00005     0.00012     0.00007       8     8     0
   0.16894     0.00796     0.00258     0.00179     0.00176       8     8     0
   0.25000     0.00796     0.01995     0.01411     0.01433       8     8     0
   0.33106     0.00796     0.10439     0.07384     0.07364       8     8     0
   0.40334     0.00796     0.31340     0.22158     0.22160       8     8     0
   0.45901     0.00796     0.57030     0.40323     0.40352       8     8     0
   0.49204     0.00796     0.73540     0.52025     0.51977       8     8     0
   0.50000     0.00796     0.77274     0.54683     0.54601       8     8     0
   0.00000     0.04099     0.00038     0.00011     0.00043       8     8     0
   0.00796     0.04099     0.00011    -0.00014    -0.00003       8     8     0
   0.04099     0.04099     0.00034     0.00003     0.00003       8     8     0
   0.09666     0.04099     0.00091     0.00075     0.00065       8     8     0
   0.16894     0.04099     0.00587     0.00412     0.00411       8     8     0
   0.25000     0.04099     0.04082     0.02879     0.02893       8     8     0
   0.33106     0.04099     0.18125     0.12831     0.12793       8     8     0
   0.40334     0.04099     0.45914     0.32450     0.32486       8     8     0
   0.45901     0.04099     0.73426     0.51931     0.51948       8     8     0
   0.49204     0.04099     0.87792     0.62074     0.62074       8     8     0
   0.50000     0.04099     0.90637     0.64052     0.64088       8     8     0
   0.00000     0.09666    -0.00129    -0.00124    -0.00079       8     8     0
   0.00796     0.09666     0.00005     0.00007     0.00012       8     8     0
   0.04099     0.09666     0.00091     0.00065     0.00075       8     8     0
   0.09666     0.09666     0.00315     0.00217     0.00217       8     8     0
   0.16894     0.09666     0.02436     0.01743     0.01706       8     8     0
   0.25000     0.09666     0.11944     0.08420     0.08469       8     8     0
   0.33106     0.09666     0.38232     0.27059     0.27036       8     8     0
   0.40334     0.09666     0.73449     0.51914     0.51914       8     8     0
   0.45901     0.09666     0.95007     0.67191     0.67176       8     8     0
   0.49204     0.09666     0.99941     0.70671     0.70669       8     8     0
   0.50000     0.09666     1.00076     0.70709     0.70762       8     8     0
   0.00000     0.16894     0.00134     0.00078     0.00090       8     8     0
   0.00796     0.16894     0.00258     0.00176     0.00179       8     8     0
   0.04099     0.16894     0.00587     0.00411     0.00412       8     8     0
   0.09666     0.16894     0.02436     0.01706     0.01743       8     8     0
   0.16894     0.16894     0.10189     0.07214     0.07214       8     8     0
   0.25000     0.16894     0.34431     0.24351     0.24314       8     8     0
   0.33106     0.16894     0.73578     0.52015     0.52035       8     8     0
   0.40334     0.16894     0.98312     0.69528     0.69549       8     8     0
   0.45901     0.16894     0.96147     0.67978     0.67980       8     8     0
   0.49204     0.16894     0.85679     0.60597     0.60565       8     8     0
   0.50000     0.16894     0.82391     0.58298     0.58242       8     8     0
   0.00000     0.25000     0.01890     0.01421     0.01334       8     8     0
   0.00796     0.25000     0.01995     0.01433     0.01411       8     8     0
   0.04099     0.25000     0.04082     0.02893     0.02879       8     8     0
   0.09666     0.25000     0.11944     0.08469     0.08420       8     8     0
   0.16894     0.25000     0.34431     0.24314     0.24351       8     8     0
   0.25000     0.25000     0.73635     0.52095     0.52095       8     8     0
   0.33106     0.25000     0.99260     0.70167     0.70172       8     8     0
   0.40334     0.25000     0.88633     0.62687     0.62651       8     8     0
   0.45901     0.25000     0.63378     0.44808     0.44821       8     8     0
   0.49204     0.25000     0.46962     0.33209     0.33223       8     8     0
   0.50000     0.25000     0.43134     0.30557     0.30517       8     8     0
   0.00000     0.33106     0.09056     0.06380     0.06407       8     8     0
   0.00796     0.33106     0.10439     0.07364     0.07384       8     8     0
   0.04099     0.33106     0.18125     0.12793     0.12831       8     8     0
   0.09666     0.33106     0.38232     0.27036     0.27059       8     8     0
   0.16894     0.33106     0.73578     0.52035     0.52015       8     8     0
   0.25000     0.33106     0.99260     0.70172     0.70167       8     8     0
   0.33106     0.33106     0.85311     0.60342     0.60342       8     8     0
   0.40334     0.33106     0.50693     0.35829     0.35859       8     8     0
   0.45901     0.33106     0.26420     0.18693     0.18673       8     8     0
   0.49204     0.33106     0.16227     0.11466     0.11461       8     8     0
   0.50000     0.33106     0.14292     0.10052     0.10092       8     8     0
   0.00000     0.40334     0.28013     0.19738     0.19806       8     8     0
   0.00796     0.40334     0.31340     0.22160     0.22158       8     8     0
   0.04099     0.40334     0.45914     0.32486     0.32450       8     8     0
   0.09666     0.40334     0.73449     0.51914     0.51914       8     8     0
   0.16894     0.40334     0.98312     0.69549     0.69528       8     8     0
   0.25000     0.40334     0.88633     0.62651     0.62687       8     8     0
   0.33106     0.40334     0.50693     0.35859     0.35829       8     8     0
   0.40334     0.40334     0.20787     0.14689     0.14689       8     8     0
   0.45901     0.40334     0.08313     0.05885     0.05887       8     8     0
   0.49204     0.40334     0.04345     0.03069     0.03084       8     8     0
   0.50000     0.40334     0.03732     0.02589     0.02649       8     8     0
   0.00000     0.45901     0.52964     0.37473     0.37443       8     8     0
   0.00796     0.45901     0.57030     0.40352     0.40323       8     8     0
   0.04099     0.45901     0.73426     0.51948     0.51931       8     8     0
   0.09666     0.45901     0.95007     0.67176     0.67191       8     8     0
   0.16894     0.45901     0.96147     0.67980     0.67978       8     8     0
   0.25000     0.45901     0.63378     0.44821     0.44808       8     8     0
   0.33106     0.45901     0.26420     0.18673     0.18693       8     8     0
   0.40334     0.45901     0.08313     0.05887     0.05885       8     8     0
   0.45901     0.45901     0.02705     0.01906     0.01906       8     8     0
   0.49204     0.45901     0.01205     0.00857     0.00843       8     8     0
   0.50000     0.45901     0.00971     0.00714     0.00678       8     8     0
   0.00000     0.49204     0.69735     0.49301     0.49351       8     8     0
   0.00796     0.49204     0.73540     0.51977     0.52025       8     8     0
   0.04099     0.49204     0.87792     0.62074     0.62074       8     8     0
   0.09666     0.49204     0.99941     0.70669     0.70671       8     8     0
   0.16894     0.49204     0.85679     0.60565     0.60597       8     8     0
   0.25000     0.49204     0.46962     0.33223     0.33209       8     8     0
   0.33106     0.49204     0.16227     0.11461     0.11466       8     8     0
   0.40334     0.49204     0.04345     0.03084     0.03069       8     8     0
   0.45901     0.49204     0.01205     0.00843     0.00857       8     8     0
   0.49204     0.49204     0.00510     0.00367     0.00367       8     8     0
   0.50000     0.49204     0.00380     0.00315     0.00275       8     8     0
   0.00000     0.50000     0.73611     0.52011     0.52121       8     8     0
   0.00796     0.50000     0.77274     0.54601     0.54683       8     8     0
   0.04099     0.50000     0.90637     0.64088     0.64052       8     8     0
   0.09666     0.50000     1.00076     0.70762     0.70709       8     8     0
   0.16894     0.50000     0.82391     0.58242     0.58298       8     8     0
   0.25000     0.50000     0.43134     0.30517     0.30557       8     8     0
   0.33106     0.50000     0.14292     0.10092     0.10052       8     8     0
   0.40334     0.50000     0.03732     0.02649     0.02589       8     8     0
   0.45901     0.50000     0.00971     0.00678     0.00714       8     8     0
   0.49204     0.50000     0.00380     0.00275     0.00315       8     8     0
   0.50000     0.50000     0.00265     0.00232     0.00232       8     8     0
ZONE T= "IEL     2",  I=11,  J=11,  SOLUTIONTIME=   0.42020,  DATAPACKING = POINT
   0.00000     0.50000     0.73654     0.51997     0.52101       8     8     0
   0.00796     0.50000     0.77361     0.54636     0.54733       8     8     0
   0.04099     0.50000     0.90768     0.64191     0.64233       8     8     0
   0.09666     0.50000     1.00080     0.70774     0.70787       8     8     0
   0.16894     0.50000     0.82348     0.58209     0.58215       8     8     0
   0.25000     0.50000     0.43164     0.30536     0.30518       8     8     0
   0.33106     0.50000     0.14273     0.10080     0.10095       8     8     0
   0.40334     0.50000     0.03701     0.02627     0.02618       8     8     0
   0.45901     0.50000     0.00989     0.00691     0.00699       8     8     0
   0.49204     0.50000     0.00408     0.00293     0.00289       8     8     0
   0.50000     0.50000     0.00294     0.00249     0.00211       8     8     0
   0.00000     0.50796     0.77435     0.54737     0.54732       8     8     0
   0.00796     0.50796     0.80900     0.57164     0.57190       8     8     0
   0.04099     0.50796     0.93129     0.65834     0.65860       8     8     0
   0.09666     0.50796     0.99677     0.70485     0.70495       8     8     0
   0.16894     0.50796     0.78907     0.55773     0.55797       8     8     0
   0.25000     0.50796     0.39525     0.27966     0.27945       8     8     0
   0.33106     0.50796     0.12485     0.08816     0.08828       8     8     0
   0.40334     0.50796     0.03126     0.02221     0.02211       8     8     0
   0.45901     0.50796     0.00795     0.00554     0.00562       8     8     0
   0.49204     0.50796     0.00325     0.00235     0.00230       8     8     0
   0.50000     0.50796     0.00223     0.00203     0.00158       8     8     0
   0.00000     0.54099     0.90808     0.64262     0.64203       8     8     0
   0.00796     0.54099     0.93139     0.65857     0.65852       8     8     0
   0.04099     0.54099     0.99489     0.70319     0.70339       8     8     0
   0.09666     0.54099     0.93726     0.66285     0.66268       8     8     0
   0.16894     0.54099     0.62876     0.44447     0.44462       8     8     0
   0.25000     0.54099     0.26135     0.18495     0.18480       8     8     0
   0.33106     0.54099     0.06879     0.04855     0.04864       8     8     0
   0.40334     0.54099     0.01474     0.01048     0.01042       8     8     0
   0.45901     0.54099     0.00296     0.00205     0.00209       8     8     0
   0.49204     0.54099     0.00126     0.00092     0.00089       8     8     0
   0.50000     0.54099     0.00068     0.00081     0.00048       8     8     0
   0.00000     0.59666     1.00020     0.70745     0.70742       8     8     0
   0.00796     0.59666     0.99616     0.70455     0.70457       8     8     0
   0.04099     0.59666     0.93694     0.66260     0.66266       8     8     0
   0.09666     0.59666     0.71118     0.50301     0.50287       8     8     0
   0.16894     0.59666     0.36146     0.25563     0.25549       8     8     0
   0.25000     0.59666     0.10991     0.07769     0.07773       8     8     0
   0.33106     0.59666     0.02139     0.01514     0.01514       8     8     0
   0.40334     0.59666     0.00324     0.00227     0.00229       8     8     0
   0.45901     0.59666     0.00047     0.00036     0.00034       8     8     0
   0.49204     0.59666     0.00030     0.00020     0.00021       8     8     0
   0.50000     0.59666     0.00025     0.00010     0.00018       8     8     0
   0.00000     0.66894     0.82358     0.58222     0.58213       8     8     0
   0.00796     0.66894     0.78912     0.55797     0.55777       8     8     0
   0.04099     0.66894     0.62890     0.44468     0.44456       8     8     0
   0.09666     0.66894     0.36162     0.25561     0.25573       8     8     0
   0.16894     0.66894     0.12809     0.09060     0.09066       8     8     0
   0.25000     0.66894     0.02582     0.01820     0.01826       8     8     0
   0.33106     0.66894     0.00336     0.00242     0.00236       8     8     0
   0.40334     0.66894     0.00023     0.00013     0.00017       8     8     0
   0.45901     0.66894     0.00019     0.00016     0.00014       8     8     0
   0.49204     0.66894     0.00001    -0.00001     0.00000       8     8     0
   0.50000     0.66894     0.00012    -0.00006     0.00008       8     8     0
   0.00000     0.75000     0.43135     0.30483     0.30526       8     8     0
   0.00796     0.75000     0.39516     0.27933     0.27965       8     8     0
   0.04099     0.75000     0.26155     0.18498     0.18505       8     8     0
   0.09666     0.75000     0.10989     0.07770     0.07766       8     8     0
   0.16894     0.75000     0.02574     0.01821     0.01814       8     8     0
   0.25000     0.75000     0.00334     0.00238     0.00236       8     8     0
   0.33106     0.75000     0.00027     0.00018     0.00020       8     8     0
   0.40334     0.75000     0.00005     0.00004     0.00004       8     8     0
   0.45901     0.75000     0.00000    -0.00000     0.00000       8     8     0
   0.49204     0.75000    -0.00004    -0.00003    -0.00003       8     8     0
   0.50000     0.75000    -0.00003    -0.00001    -0.00002       8     8     0
   0.00000     0.83106     0.14322     0.10154     0.10102       8     8     0
   0.00796     0.83106     0.12521     0.08870     0.08831       8     8     0
   0.04099     0.83106     0.06873     0.04860     0.04851       8     8     0
   0.09666     0.83106     0.02122     0.01503     0.01506       8     8     0
   0.16894     0.83106     0.00341     0.00241     0.00245       8     8     0
   0.25000     0.83106     0.00030     0.00021     0.00020       8     8     0
   0.33106     0.83106     0.00000    -0.00001    -0.00001       8     8     0
   0.40334     0.83106    -0.00001     0.00000    -0.00000       8     8     0
   0.45901     0.83106    -0.00002    -0.00002    -0.00001       8     8     0
   0.49204     0.83106     0.00002     0.00002     0.00001       8     8     0
   0.50000     0.83106    -0.00000     0.00002    -0.00001       8     8     0
   0.00000     0.90334     0.03666     0.02558     0.02621       8     8     0
   0.00796     0.90334     0.03091     0.02162     0.02212       8     8     0
   0.04099     0.90334     0.01458     0.01027     0.01041       8     8     0
   0.09666     0.90334     0.00336     0.00236     0.00234       8     8     0
   0.16894     0.90334     0.00028     0.00019     0.00019       8     8     0
   0.25000     0.90334    -0.00000     0.00000     0.00002       8     8     0
   0.33106     0.90334    -0.00000     0.00000    -0.00001       8     8     0
   0.40334     0.90334     0.00002     0.00001     0.00000       8     8     0
   0.45901     0.90334     0.00001     0.00000     0.00001       8     8     0
   0.49204     0.90334    -0.00001    -0.00000     0.00000       8     8     0
   0.50000     0.90334    -0.00001    -0.00000     0.00000       8     8     0
   0.00000     0.95901     0.00981     0.00722     0.00643       8     8     0
   0.00796     0.95901     0.00797     0.00579     0.00511       8     8     0
   0.04099     0.95901     0.00315     0.00219     0.00187       8     8     0
   0.09666     0.95901     0.00057     0.00041     0.00035       8     8     0
   0.16894     0.95901     0.00013     0.00009     0.00006       8     8     0
   0.25000     0.95901    -0.00001     0.00000    -0.00002       8     8     0
   0.33106     0.95901    -0.00001    -0.00001     0.00002       8     8     0
   0.40334     0.95901     0.00000     0.00000     0.00000       8     8     0
   0.45901     0.95901    -0.00001    -0.00000    -0.00001       8     8     0
   0.49204     0.95901    -0.00000    -0.00000    -0.00001       8     8     0
   0.50000     0.95901    -0.00001     0.00000    -0.00001       8     8     0
   0.00000     0.99204     0.00504     0.00218     0.00197       8     8     0
   0.00796     0.99204     0.00424     0.00211     0.00152       8     8     0
   0.04099     0.99204     0.00197     0.00135     0.00049       8     8     0
   0.09666     0.99204     0.00038     0.00027     0.00006       8     8     0
   0.16894     0.99204    -0.00003    -0.00000    -0.00005       8     8     0
   0.25000     0.99204     0.00004     0.00000    -0.00002       8     8     0
   0.33106     0.99204     0.00002     0.00002     0.00002       8     8     0
   0.40334     0.99204    -0.00002    -0.00002    -0.00000       8     8     0
   0.45901     0.99204    -0.00001    -0.00000     0.00000       8     8     0
   0.49204     0.99204     0.00002     0.00002    -0.00001       8     8     0
   0.50000     0.99204     0.00003    -0.00001    -0.00002       8     8     0
   0.00000     1.00000     0.00373    -0.00029     0.00119       8     8     0
   0.00796     1.00000     0.00315     0.00040     0.00093       8     8     0
   0.04099     1.00000     0.00152     0.00107     0.00025       8     8     0
   0.09666     1.00000     0.00039     0.00028    -0.00008       8     8     0
   0.16894     1.00000     0.00007     0.00009    -0.00006       8     8     0
   0.25000     1.00000     0.00005     0.00000     0.00000       8     8     0
   0.33106     1.00000     0.00001     0.00001     0.00001       8     8     0
   0.40334     1.00000    -0.00002    -0.00002    -0.00000       8     8     0
   0.45901     1.00000    -0.00002    -0.00002     0.00001       8     8     0
   0.49204     1.00000     0.00002     0.00003    -0.00000       8     8     0
   0.50000     1.00000     0.00004    -0.00002    -0.00002       8     8     0
ZONE T= "IEL     3",  I=11,  J=11,  SOLUTIONTIME=   0.42020,  DATAPACKING = POINT
   0.50000     0.50000     0.00320     0.00226     0.00226       8     8     0
   0.50796     0.50000     0.00250     0.00177     0.00177       8     8     0
   0.54099     0.50000     0.00087     0.00061     0.00061       8     8     0
   0.59666     0.50000     0.00019     0.00014     0.00013       8     8     0
   0.66894     0.50000     0.00004     0.00003     0.00003       8     8     0
   0.75000     0.50000    -0.00002    -0.00002    -0.00002       8     8     0
   0.83106     0.50000     0.00001     0.00001     0.00001       8     8     0
   0.90334     0.50000    -0.00001    -0.00000    -0.00000       8     8     0
   0.95901     0.50000    -0.00001    -0.00000    -0.00000       8     8     0
   0.99204     0.50000     0.00002    -0.00000     0.00001       8     8     0
   1.00000     0.50000     0.00002    -0.00000     0.00001       8     8     0
   0.50000     0.50796     0.00250     0.00177     0.00177       8     8     0
   0.50796     0.50796     0.00194     0.00137     0.00137       8     8     0
   0.54099     0.50796     0.00068     0.00048     0.00048       8     8     0
   0.59666     0.50796     0.00017     0.00012     0.00012       8     8     0
   0.66894     0.50796     0.00002     0.00002     0.00002       8     8     0
   0.75000     0.50796    -0.00002    -0.00001    -0.00001       8     8     0
   0.83106     0.50796     0.00001     0.00001     0.00001       8     8     0
   0.90334     0.50796    -0.00001    -0.00000    -0.00001       8     8     0
   0.95901     0.50796    -0.00000     0.00000    -0.00000       8     8     0
   0.99204     0.50796     0.00002     0.00000     0.00001       8     8     0
   1.00000     0.50796     0.00002    -0.00000     0.00001       8     8     0
   0.50000     0.54099     0.00087     0.00061     0.00061       8     8     0
   0.50796     0.54099     0.00068     0.00048     0.00048       8     8     0
   0.54099     0.54099     0.00028     0.00020     0.00020       8     8     0
   0.59666     0.54099     0.00009     0.00007     0.00007       8     8     0
   0.66894     0.54099    -0.00001    -0.00001    -0.00001       8     8     0
   0.75000     0.54099    -0.00000    -0.00000    -0.00000       8     8     0
   0.83106     0.54099     0.00000     0.00000     0.00000       8     8     0
   0.90334     0.54099    -0.00000    -0.00001    -0.00000       8     8     0
   0.95901     0.54099     0.00000     0.00001     0.00000       8     8     0
   0.99204     0.54099     0.00000     0.00000     0.00000       8     8     0
   1.00000     0.54099     0.00001    -0.00000     0.00000       8     8     0
   0.50000     0.59666     0.00019     0.00013     0.00014       8     8     0
   0.50796     0.59666     0.00017     0.00012     0.00012       8     8     0
   0.54099     0.59666     0.00009     0.00007     0.00007       8     8     0
   0.59666     0.59666    -0.00000    -0.00000    -0.00000       8     8     0
   0.66894     0.59666    -0.00001    -0.00001    -0.00001       8     8     0
   0.75000     0.59666     0.00001     0.00000     0.00000       8     8     0
   0.83106     0.59666    -0.00000    -0.00000    -0.00000       8     8     0
   0.90334     0.59666     0.00000     0.00000     0.00000       8     8     0
   0.95901     0.59666     0.00000    -0.00000     0.00000       8     8     0
   0.99204     0.59666    -0.00001    -0.00000    -0.00000       8     8     0
   1.00000     0.59666    -0.00001     0.00000    -0.00000       8     8     0
   0.50000     0.66894     0.00004     0.00003     0.00003       8     8     0
   0.50796     0.66894     0.00002     0.00002     0.00002       8     8     0
   0.54099     0.66894    -0.00001    -0.00001    -0.00001       8     8     0
   0.59666     0.66894    -0.00001    -0.00001    -0.00001       8     8     0
   0.66894     0.66894     0.00001     0.00000     0.00000       8     8     0
   0.75000     0.66894    -0.00000    -0.00000    -0.00000       8     8     0
   0.83106     0.66894     0.00000     0.00000     0.00000       8     8     0
   0.90334     0.66894    -0.00000     0.00000    -0.00000       8     8     0
   0.95901     0.66894    -0.00000    -0.00000    -0.00000       8     8     0
   0.99204     0.66894     0.00000    -0.00000     0.00000       8     8     0
   1.00000     0.66894     0.00000    -0.00000     0.00000       8     8     0
   0.50000     0.75000    -0.00002    -0.00002    -0.00002       8     8     0
   0.50796     0.75000    -0.00002    -0.00001    -0.00001       8     8     0
   0.54099     0.75000    -0.00000    -0.00000    -0.00000       8     8     0
   0.59666     0.75000     0.00001     0.00000     0.00000       8     8     0
   0.66894     0.75000    -0.00000    -0.00000    -0.00000       8     8     0
   0.75000     0.75000     0.00000     0.00000     0.00000       8     8     0
   0.83106     0.75000    -0.00000    -0.00000    -0.00000       8     8     0
   0.90334     0.75000     0.00000    -0.00000    -0.00000       8     8     0
   0.95901     0.75000     0.00000     0.00000     0.00000       8     8     0
   0.99204     0.75000    -0.00000     0.00000    -0.00000       8     8     0
   1.00000     0.75000    -0.00000    -0.00000    -0.00000       8     8     0
   0.50000     0.83106     0.00001     0.00001     0.00001       8     8     0
   0.50796     0.83106     0.00001     0.00001     0.00001       8     8     0
   0.54099     0.83106     0.00000     0.00000     0.00000       8     8     0
   0.59666     0.83106    -0.00000    -0.00000    -0.00000       8     8     0
   0.66894     0.83106     0.00000     0.00000     0.00000       8     8     0
   0.75000     0.83106    -0.00000    -0.00000    -0.00000       8     8     0
   0.83106     0.83106     0.00000    -0.00000    -0.00000       8     8     0
   0.90334     0.83106     0.00000     0.00000     0.00000       8     8     0
   0.95901     0.83106    -0.00000    -0.00000    -0.00000       8     8     0
   0.99204     0.83106     0.00000    -0.00000    -0.00000       8     8     0
   1.00000     0.83106     0.00000     0.00000    -0.00000       8     8     0
   0.50000     0.90334    -0.00001    -0.00000    -0.00000       8     8     0
   0.50796     0.90334    -0.00001    -0.00001    -0.00000       8     8     0
   0.54099     0.90334    -0.00000    -0.00000    -0.00001       8     8     0
   0.59666     0.90334     0.00000     0.00000     0.00000       8     8     0
   0.66894     0.90334    -0.00000    -0.00000     0.00000       8     8     0
   0.75000     0.90334     0.00000    -0.00000    -0.00000       8     8     0
   0.83106     0.90334     0.00000     0.00000     0.00000       8     8     0
   0.90334     0.90334    -0.00000    -0.00000    -0.00000       8     8     0
   0.95901     0.90334     0.00000     0.00000    -0.00000       8     8     0
   0.99204     0.90334    -0.00000     0.00000     0.00000       8     8     0
   1.00000     0.90334     0.00000    -0.00000     0.00000       8     8     0
   0.50000     0.95901    -0.00001    -0.00000    -0.00000       8     8     0
   0.50796     0.95901    -0.00000    -0.00000     0.00000       8     8     0
   0.54099     0.95901     0.00000     0.00000     0.00001       8     8     0
   0.59666     0.95901     0.00000     0.00000    -0.00000       8     8     0
   0.66894     0.95901    -0.00000    -0.00000    -0.00000       8     8     0
   0.75000     0.95901     0.00000     0.00000     0.00000       8     8     0
   0.83106     0.95901    -0.00000    -0.00000    -0.00000       8     8     0
   0.90334     0.95901     0.00000    -0.00000     0.00000       8     8     0
   0.95901     0.95901     0.00000     0.00000     0.00000       8     8     0
   0.99204     0.95901    -0.00000     0.00000    -0.00000       8     8     0
   1.00000     0.95901    -0.00000     0.00000    -0.00000       8     8     0
   0.50000     0.99204     0.00002     0.00001    -0.00000       8     8     0
   0.50796     0.99204     0.00002     0.00001     0.00000       8     8     0
   0.54099     0.99204     0.00000     0.00000     0.00000       8     8     0
   0.59666     0.99204    -0.00001    -0.00000    -0.00000       8     8     0
   0.66894     0.99204     0.00000     0.00000    -0.00000       8     8     0
   0.75000     0.99204    -0.00000    -0.00000     0.00000       8     8     0
   0.83106     0.99204     0.00000    -0.00000    -0.00000       8     8     0
   0.90334     0.99204    -0.00000     0.00000     0.00000       8     8     0
   0.95901     0.99204    -0.00000    -0.00000     0.00000       8     8     0
   0.99204     0.99204     0.00000    -0.00000    -0.00000       8     8     0
   1.00000     0.99204     0.00000     0.00000    -0.00000       8     8     0
   0.50000     1.00000     0.00002     0.00001    -0.00000       8     8     0
   0.50796     1.00000     0.00002     0.00001    -0.00000       8     8     0
   0.54099     1.00000     0.00001     0.00000    -0.00000       8     8     0
   0.59666     1.00000    -0.00001    -0.00000     0.00000       8     8     0
   0.66894     1.00000     0.00000     0.00000    -0.00000       8     8     0
   0.75000     1.00000    -0.00000    -0.00000    -0.00000       8     8     0
   0.83106     1.00000     0.00000    -0.00000     0.00000       8     8     0
   0.90334     1.00000     0.00000     0.00000    -0.00000       8     8     0
   0.95901     1.00000    -0.00000    -0.00000     0.00000       8     8     0
   0.99204     1.00000     0.00000    -0.00000     0.00000       8     8     0
   1.00000     1.00000     0.00000     0.00000     0.00000       8     8     0
ZONE T= "IEL     4",  I=11,  J=11,  SOLUTIONTIME=   0.42020,  DATAPACKING = POINT
   0.50000     0.00000     0.73654     0.52101     0.51997       8     8     0
   0.50796     0.00000     0.77435     0.54732     0.54737       8     8     0
   0.54099     0.00000     0.90808     0.64203     0.64262       8     8     0
   0.59666     0.00000     1.00020     0.70742     0.70745       8     8     0
   0.66894     0.00000     0.82358     0.58213     0.58222       8     8     0
   0.75000     0.00000     0.43135     0.30526     0.30483       8     8     0
   0.83106     0.00000     0.14322     0.10102     0.10154       8     8     0
   0.90334     0.00000     0.03666     0.02621     0.02558       8     8     0
   0.95901     0.00000     0.00981     0.00643     0.00722       8     8     0
   0.99204     0.00000     0.00504     0.00197     0.00218       8     8     0
   1.00000     0.00000     0.00373     0.00119    -0.00029       8     8     0