TITLE = "MESH AND SOLUTIONS"
VARIABLES = "X", "Y", "PRESSURE", "U", "V",  "N", "M", "PROC"
ZONE T= "IEL     1",  I=11,  J=11,  SOLUTIONTIME=   1.54020,  DATAPACKING = POINT
   0.00000     0.00000     0.00312    -0.00314    -0.00314       8     8     0
   0.00796     0.00000     0.00376    -0.00345    -0.00377       8     8     0
   0.04099     0.00000     0.00741    -0.00584    -0.00746       8     8     0
   0.09666     0.00000     0.01971    -0.01691    -0.01974       8     8     0
   0.16894     0.00000     0.05120    -0.05012    -0.05123       8     8     0
   0.25000     0.00000     0.09124    -0.09817    -0.09133       8     8     0
   0.33106     0.00000     0.10777    -0.12761    -0.10752       8     8     0
   0.40334     0.00000     0.09851    -0.13055    -0.09809       8     8     0
   0.45901     0.00000     0.08429    -0.12449    -0.08432       8     8     0
   0.49204     0.00000     0.07493    -0.11896    -0.07528       8     8     0
   0.50000     0.00000     0.07254    -0.11731    -0.07293       8     8     0
   0.00000     0.00796     0.00376    -0.00377    -0.00345       8     8     0
   0.00796     0.00796     0.00454    -0.00416    -0.00416       8     8     0
   0.04099     0.00796     0.00892    -0.00704    -0.00808       8     8     0
   0.09666     0.00796     0.02292    -0.01943    -0.02046       8     8     0
   0.16894     0.00796     0.05602    -0.05418    -0.05140       8     8     0
   0.25000     0.00796     0.09466    -0.10130    -0.09042       8     8     0
   0.33106     0.00796     0.10769    -0.12768    -0.10628       8     8     0
   0.40334     0.00796     0.09674    -0.12887    -0.09722       8     8     0
   0.45901     0.00796     0.08248    -0.12244    -0.08367       8     8     0
   0.49204     0.00796     0.07332    -0.11687    -0.07480       8     8     0
   0.50000     0.00796     0.07103    -0.11528    -0.07252       8     8     0
   0.00000     0.04099     0.00741    -0.00746    -0.00584       8     8     0
   0.00796     0.04099     0.00892    -0.00808    -0.00704       8     8     0
   0.04099     0.04099     0.01672    -0.01248    -0.01248       8     8     0
   0.09666     0.04099     0.03821    -0.02978    -0.02579       8     8     0
   0.16894     0.04099     0.07841    -0.07027    -0.05477       8     8     0
   0.25000     0.04099     0.11184    -0.11334    -0.08985       8     8     0
   0.33106     0.04099     0.11142    -0.12769    -0.10405       8     8     0
   0.40334     0.04099     0.09339    -0.12199    -0.09597       8     8     0
   0.45901     0.04099     0.07738    -0.11384    -0.08346       8     8     0
   0.49204     0.04099     0.06781    -0.10825    -0.07511       8     8     0
   0.50000     0.04099     0.06567    -0.10697    -0.07298       8     8     0
   0.00000     0.09666     0.01971    -0.01974    -0.01691       8     8     0
   0.00796     0.09666     0.02292    -0.02046    -0.01943       8     8     0
   0.04099     0.09666     0.03821    -0.02579    -0.02978       8     8     0
   0.09666     0.09666     0.07468    -0.04786    -0.04786       8     8     0
   0.16894     0.09666     0.13098    -0.09468    -0.07656       8     8     0
   0.25000     0.09666     0.16096    -0.13068    -0.10774       8     8     0
   0.33106     0.09666     0.13737    -0.12665    -0.11791       8     8     0
   0.40334     0.09666     0.10088    -0.11073    -0.10605       8     8     0
   0.45901     0.09666     0.07703    -0.10026    -0.09146       8     8     0
   0.49204     0.09666     0.06505    -0.09447    -0.08255       8     8     0
   0.50000     0.09666     0.06280    -0.09353    -0.08028       8     8     0
   0.00000     0.16894     0.05120    -0.05123    -0.05012       8     8     0
   0.00796     0.16894     0.05602    -0.05140    -0.05418       8     8     0
   0.04099     0.16894     0.07841    -0.05477    -0.07027       8     8     0
   0.09666     0.16894     0.13098    -0.07656    -0.09468       8     8     0
   0.16894     0.16894     0.21449    -0.12714    -0.12714       8     8     0
   0.25000     0.16894     0.26265    -0.15503    -0.16607       8     8     0
   0.33106     0.16894     0.22832    -0.12345    -0.18669       8     8     0
   0.40334     0.16894     0.16714    -0.08658    -0.17239       8     8     0
   0.45901     0.16894     0.12225    -0.07163    -0.14545       8     8     0
   0.49204     0.16894     0.09805    -0.06691    -0.12721       8     8     0
   0.50000     0.16894     0.09312    -0.06659    -0.12258       8     8     0
   0.00000     0.25000     0.09124    -0.09133    -0.09817       8     8     0
   0.00796     0.25000     0.09466    -0.09042    -0.10130       8     8     0
   0.04099     0.25000     0.11184    -0.08985    -0.11334       8     8     0
   0.09666     0.25000     0.16096    -0.10774    -0.13068       8     8     0
   0.16894     0.25000     0.26265    -0.16607    -0.15503       8     8     0
   0.25000     0.25000     0.35121    -0.20384    -0.20384       8     8     0
   0.33106     0.25000     0.34617    -0.14822    -0.26683       8     8     0
   0.40334     0.25000     0.29507    -0.06603    -0.29500       8     8     0
   0.45901     0.25000     0.25011    -0.02316    -0.28191       8     8     0
   0.49204     0.25000     0.21936    -0.00906    -0.26093       8     8     0
   0.50000     0.25000     0.21161    -0.00700    -0.25454       8     8     0
   0.00000     0.33106     0.10777    -0.10752    -0.12761       8     8     0
   0.00796     0.33106     0.10769    -0.10628    -0.12768       8     8     0
   0.04099     0.33106     0.11142    -0.10405    -0.12769       8     8     0
   0.09666     0.33106     0.13737    -0.11791    -0.12665       8     8     0
   0.16894     0.33106     0.22832    -0.18669    -0.12345       8     8     0
   0.25000     0.33106     0.34617    -0.26683    -0.14822       8     8     0
   0.33106     0.33106     0.37821    -0.23498    -0.23498       8     8     0
   0.40334     0.33106     0.35307    -0.11648    -0.33582       8     8     0
   0.45901     0.33106     0.34320    -0.02256    -0.39010       8     8     0
   0.49204     0.33106     0.33878     0.02343    -0.40444       8     8     0
   0.50000     0.33106     0.33616     0.03400    -0.40588       8     8     0
   0.00000     0.40334     0.09851    -0.09809    -0.13055       8     8     0
   0.00796     0.40334     0.09674    -0.09722    -0.12887       8     8     0
   0.04099     0.40334     0.09339    -0.09597    -0.12199       8     8     0
   0.09666     0.40334     0.10088    -0.10605    -0.11073       8     8     0
   0.16894     0.40334     0.16714    -0.17239    -0.08658       8     8     0
   0.25000     0.40334     0.29507    -0.29500    -0.06603       8     8     0
   0.33106     0.40334     0.35307    -0.33582    -0.11648       8     8     0
   0.40334     0.40334     0.31697    -0.23850    -0.23850       8     8     0
   0.45901     0.40334     0.30172    -0.11875    -0.34922       8     8     0
   0.49204     0.40334     0.31341    -0.04430    -0.40929       8     8     0
   0.50000     0.40334     0.31635    -0.02470    -0.42322       8     8     0
   0.00000     0.45901     0.08429    -0.08432    -0.12449       8     8     0
   0.00796     0.45901     0.08248    -0.08367    -0.12244       8     8     0
   0.04099     0.45901     0.07738    -0.08346    -0.11384       8     8     0
   0.09666     0.45901     0.07703    -0.09146    -0.10026       8     8     0
   0.16894     0.45901     0.12225    -0.14545    -0.07163       8     8     0
   0.25000     0.45901     0.25011    -0.28191    -0.02316       8     8     0
   0.33106     0.45901     0.34320    -0.39010    -0.02256       8     8     0
   0.40334     0.45901     0.30172    -0.34922    -0.11875       8     8     0
   0.45901     0.45901     0.24197    -0.24026    -0.24026       8     8     0
   0.49204     0.45901     0.22914    -0.16045    -0.31892       8     8     0
   0.50000     0.45901     0.22834    -0.13867    -0.33873       8     8     0
   0.00000     0.49204     0.07493    -0.07528    -0.11896       8     8     0
   0.00796     0.49204     0.07332    -0.07480    -0.11687       8     8     0
   0.04099     0.49204     0.06781    -0.07511    -0.10825       8     8     0
   0.09666     0.49204     0.06505    -0.08255    -0.09447       8     8     0
   0.16894     0.49204     0.09805    -0.12721    -0.06691       8     8     0
   0.25000     0.49204     0.21936    -0.26093    -0.00906       8     8     0
   0.33106     0.49204     0.33878    -0.40444     0.02343       8     8     0
   0.40334     0.49204     0.31341    -0.40929    -0.04430       8     8     0
   0.45901     0.49204     0.22914    -0.31892    -0.16045       8     8     0
   0.49204     0.49204     0.19091    -0.24294    -0.24294       8     8     0
   0.50000     0.49204     0.18457    -0.22225    -0.26407       8     8     0
   0.00000     0.50000     0.07254    -0.07293    -0.11731       8     8     0
   0.00796     0.50000     0.07103    -0.07252    -0.11528       8     8     0
   0.04099     0.50000     0.06567    -0.07298    -0.10697       8     8     0
   0.09666     0.50000     0.06280    -0.08028    -0.09353       8     8     0
   0.16894     0.50000     0.09312    -0.12258    -0.06659       8     8     0
   0.25000     0.50000     0.21161    -0.25454    -0.00700       8     8     0
   0.33106     0.50000     0.33616    -0.40588     0.03400       8     8     0
   0.40334     0.50000     0.31635    -0.42322    -0.02470       8     8     0
   0.45901     0.50000     0.22834    -0.33873    -0.13867       8     8     0
   0.49204     0.50000     0.18457    -0.26407    -0.22225       8     8     0
   0.50000     0.50000     0.17693    -0.24373    -0.24373       8     8     0
ZONE T= "IEL     2",  I=11,  J=11,  SOLUTIONTIME=   1.54020,  DATAPACKING = POINT
   0.00000     0.50000     0.07274    -0.07319    -0.11754       8     8     0
   0.00796     0.50000     0.07119    -0.07271    -0.11546       8     8     0
   0.04099     0.50000     0.06555    -0.07306    -0.10698       8     8     0
   0.09666     0.50000     0.06248    -0.08052    -0.09315       8     8     0
   0.16894     0.50000     0.09274    -0.12287    -0.06620       8     8     0
   0.25000     0.50000     0.21179    -0.25464    -0.00718       8     8     0
   0.33106     0.50000     0.33806    -0.40568     0.03294       8     8     0
   0.40334     0.50000     0.31813    -0.42201    -0.02755       8     8     0
   0.45901     0.50000     0.22792    -0.33657    -0.14242       8     8     0
   0.49204     0.50000     0.18315    -0.26222    -0.22496       8     8     0
   0.50000     0.50000     0.17549    -0.24219    -0.24590       8     8     0
   0.00000     0.50796     0.07057    -0.07105    -0.11604       8     8     0
   0.00796     0.50796     0.06906    -0.07063    -0.11396       8     8     0
   0.04099     0.50796     0.06340    -0.07110    -0.10552       8     8     0
   0.09666     0.50796     0.05988    -0.07844    -0.09185       8     8     0
   0.16894     0.50796     0.08750    -0.11860    -0.06550       8     8     0
   0.25000     0.50796     0.20384    -0.24802    -0.00560       8     8     0
   0.33106     0.50796     0.33592    -0.40540     0.04118       8     8     0
   0.40334     0.50796     0.32459    -0.43459    -0.00986       8     8     0
   0.45901     0.50796     0.23257    -0.35679    -0.12023       8     8     0
   0.49204     0.50796     0.18130    -0.28445    -0.20284       8     8     0
   0.50000     0.50796     0.17176    -0.26480    -0.22408       8     8     0
   0.00000     0.54099     0.06178    -0.06236    -0.10945       8     8     0
   0.00796     0.54099     0.06044    -0.06217    -0.10741       8     8     0
   0.04099     0.54099     0.05456    -0.06302    -0.09951       8     8     0
   0.09666     0.54099     0.05001    -0.07028    -0.08633       8     8     0
   0.16894     0.54099     0.06745    -0.10189    -0.06309       8     8     0
   0.25000     0.54099     0.16934    -0.21766    -0.00316       8     8     0
   0.33106     0.54099     0.32320    -0.39521     0.06890       8     8     0
   0.40334     0.54099     0.35299    -0.47623     0.05671       8     8     0
   0.45901     0.54099     0.26157    -0.43223    -0.03453       8     8     0
   0.49204     0.54099     0.18883    -0.37185    -0.11380       8     8     0
   0.50000     0.54099     0.17297    -0.35523    -0.13448       8     8     0
   0.00000     0.59666     0.04841    -0.04867    -0.09719       8     8     0
   0.00796     0.59666     0.04719    -0.04905    -0.09525       8     8     0
   0.04099     0.59666     0.04133    -0.05073    -0.08852       8     8     0
   0.09666     0.59666     0.03564    -0.05777    -0.07696       8     8     0
   0.16894     0.59666     0.04072    -0.07919    -0.05909       8     8     0
   0.25000     0.59666     0.10952    -0.16318    -0.00947       8     8     0
   0.33106     0.59666     0.27444    -0.34386     0.08651       8     8     0
   0.40334     0.59666     0.39133    -0.50388     0.14375       8     8     0
   0.45901     0.59666     0.35456    -0.53638     0.10503       8     8     0
   0.49204     0.59666     0.27642    -0.50909     0.04320       8     8     0
   0.50000     0.59666     0.25507    -0.49963     0.02572       8     8     0
   0.00000     0.66894     0.03327    -0.03291    -0.08015       8     8     0
   0.00796     0.66894     0.03217    -0.03401    -0.07854       8     8     0
   0.04099     0.66894     0.02784    -0.03771    -0.07275       8     8     0
   0.09666     0.66894     0.02147    -0.04471    -0.06420       8     8     0
   0.16894     0.66894     0.01815    -0.05974    -0.05208       8     8     0
   0.25000     0.66894     0.04539    -0.10560    -0.02234       8     8     0
   0.33106     0.66894     0.16819    -0.24026     0.06250       8     8     0
   0.40334     0.66894     0.35390    -0.44184     0.18074       8     8     0
   0.45901     0.66894     0.44922    -0.58085     0.23965       8     8     0
   0.49204     0.66894     0.44229    -0.62457     0.23445       8     8     0
   0.50000     0.66894     0.43257    -0.63007     0.22808       8     8     0
   0.00000     0.75000     0.01888    -0.01862    -0.06077       8     8     0
   0.00796     0.75000     0.01817    -0.02005    -0.05964       8     8     0
   0.04099     0.75000     0.01595    -0.02586    -0.05491       8     8     0
   0.09666     0.75000     0.01102    -0.03466    -0.04868       8     8     0
   0.16894     0.75000     0.00434    -0.04723    -0.04115       8     8     0
   0.25000     0.75000     0.00516    -0.07052    -0.02796       8     8     0
   0.33106     0.75000     0.05446    -0.13840     0.01674       8     8     0
   0.40334     0.75000     0.19711    -0.28807     0.12224       8     8     0
   0.45901     0.75000     0.36760    -0.46580     0.24318       8     8     0
   0.49204     0.75000     0.46220    -0.57637     0.31100       8     8     0
   0.50000     0.75000     0.47994    -0.60054     0.32428       8     8     0
   0.00000     0.83106     0.00855    -0.00865    -0.04118       8     8     0
   0.00796     0.83106     0.00829    -0.01024    -0.04040       8     8     0
   0.04099     0.83106     0.00687    -0.01690    -0.03738       8     8     0
   0.09666     0.83106     0.00364    -0.02750    -0.03276       8     8     0
   0.16894     0.83106    -0.00249    -0.04056    -0.02803       8     8     0
   0.25000     0.83106    -0.01012    -0.05726    -0.02265       8     8     0
   0.33106     0.83106    -0.00595    -0.08729    -0.00757       8     8     0
   0.40334     0.83106     0.04649    -0.15895     0.04159       8     8     0
   0.45901     0.83106     0.15760    -0.27679     0.13074       8     8     0
   0.49204     0.83106     0.25841    -0.37899     0.20980       8     8     0
   0.50000     0.83106     0.28546    -0.40665     0.23113       8     8     0
   0.00000     0.90334     0.00289    -0.00298    -0.02349       8     8     0
   0.00796     0.90334     0.00284    -0.00478    -0.02302       8     8     0
   0.04099     0.90334     0.00189    -0.01193    -0.02129       8     8     0
   0.09666     0.90334    -0.00072    -0.02321    -0.01880       8     8     0
   0.16894     0.90334    -0.00569    -0.03728    -0.01610       8     8     0
   0.25000     0.90334    -0.01455    -0.05306    -0.01339       8     8     0
   0.33106     0.90334    -0.02369    -0.07264    -0.00887       8     8     0
   0.40334     0.90334    -0.01877    -0.10663     0.00687       8     8     0
   0.45901     0.90334     0.01615    -0.16296     0.04392       8     8     0
   0.49204     0.90334     0.06423    -0.22080     0.08589       8     8     0
   0.50000     0.90334     0.08030    -0.23870     0.09903       8     8     0
   0.00000     0.95901     0.00040    -0.00050    -0.00992       8     8     0
   0.00796     0.95901     0.00042    -0.00235    -0.00972       8     8     0
   0.04099     0.95901     0.00002    -0.01000    -0.00888       8     8     0
   0.09666     0.95901    -0.00212    -0.02177    -0.00802       8     8     0
   0.16894     0.95901    -0.00723    -0.03578    -0.00692       8     8     0
   0.25000     0.95901    -0.01567    -0.05181    -0.00561       8     8     0
   0.33106     0.95901    -0.02724    -0.06935    -0.00460       8     8     0
   0.40334     0.95901    -0.03636    -0.09250     0.00052       8     8     0
   0.45901     0.95901    -0.03008    -0.12733     0.01327       8     8     0
   0.49204     0.95901    -0.01104    -0.16310     0.02803       8     8     0
   0.50000     0.95901    -0.00368    -0.17425     0.03281       8     8     0
   0.00000     0.99204    -0.00019     0.00008    -0.00193       8     8     0
   0.00796     0.99204    -0.00015    -0.00178    -0.00188       8     8     0
   0.04099     0.99204    -0.00038    -0.00957    -0.00172       8     8     0
   0.09666     0.99204    -0.00234    -0.02153    -0.00156       8     8     0
   0.16894     0.99204    -0.00765    -0.03541    -0.00134       8     8     0
   0.25000     0.99204    -0.01587    -0.05160    -0.00108       8     8     0
   0.33106     0.99204    -0.02766    -0.06897    -0.00087       8     8     0
   0.40334     0.99204    -0.03971    -0.08981    -0.00003       8     8     0
   0.45901     0.99204    -0.03879    -0.12048     0.00212       8     8     0
   0.49204     0.99204    -0.02566    -0.15170     0.00480       8     8     0
   0.50000     0.99204    -0.02031    -0.16131     0.00570       8     8     0
   0.00000     1.00000    -0.00020     0.00011    -0.00000       8     8     0
   0.00796     1.00000    -0.00017    -0.00176     0.00000       8     8     0
   0.04099     1.00000    -0.00038    -0.00956    -0.00001       8     8     0
   0.09666     1.00000    -0.00236    -0.02149     0.00001       8     8     0
   0.16894     1.00000    -0.00765    -0.03540    -0.00001       8     8     0
   0.25000     1.00000    -0.01588    -0.05162     0.00000       8     8     0
   0.33106     1.00000    -0.02789    -0.06891     0.00020       8     8     0
   0.40334     1.00000    -0.03997    -0.08976     0.00020       8     8     0
   0.45901     1.00000    -0.03883    -0.12035    -0.00018       8     8     0
   0.49204     1.00000    -0.02567    -0.15131    -0.00048       8     8     0
   0.50000     1.00000    -0.02036    -0.16080    -0.00055       8     8     0
ZONE T= "IEL     3",  I=11,  J=11,  SOLUTIONTIME=   1.54020,  DATAPACKING = POINT
   0.50000     0.50000     0.17380    -0.24442    -0.24442       8     8     0
   0.50796     0.50000     0.17019    -0.22273    -0.26651       8     8     0
   0.54099     0.50000     0.17204    -0.13466    -0.35412       8     8     0
   0.59666     0.50000     0.25719     0.02263    -0.49375       8     8     0
   0.66894     0.50000     0.43692     0.22545    -0.62480       8     8     0
   0.75000     0.50000     0.48018     0.32491    -0.60199       8     8     0
   0.83106     0.50000     0.28207     0.23213    -0.41030       8     8     0
   0.90334     0.50000     0.07760     0.09909    -0.24095       8     8     0
   0.95901     0.50000    -0.00553     0.03293    -0.17630       8     8     0
   0.99204     0.50000    -0.02188     0.00569    -0.16329       8     8     0
   1.00000     0.50000    -0.02181    -0.00069    -0.16271       8     8     0
   0.50000     0.50796     0.17019    -0.26651    -0.22273       8     8     0
   0.50796     0.50796     0.16402    -0.24521    -0.24521       8     8     0
   0.54099     0.50796     0.15605    -0.15644    -0.33620       8     8     0
   0.59666     0.50796     0.22912     0.00492    -0.48493       8     8     0
   0.66894     0.50796     0.41893     0.21866    -0.63166       8     8     0
   0.75000     0.50796     0.49732     0.33688    -0.62477       8     8     0
   0.83106     0.50796     0.31384     0.25321    -0.43586       8     8     0
   0.90334     0.50796     0.09788     0.11319    -0.25791       8     8     0
   0.95901     0.50796     0.00510     0.03832    -0.18657       8     8     0
   0.99204     0.50796    -0.01360     0.00674    -0.17204       8     8     0
   1.00000     0.50796    -0.01363    -0.00067    -0.17144       8     8     0
   0.50000     0.54099     0.17204    -0.35412    -0.13466       8     8     0
   0.50796     0.54099     0.15605    -0.33620    -0.15644       8     8     0
   0.54099     0.54099     0.11017    -0.25168    -0.25168       8     8     0
   0.59666     0.54099     0.12707    -0.08773    -0.41819       8     8     0
   0.66894     0.54099     0.32737     0.16017    -0.62094       8     8     0
   0.75000     0.54099     0.53056     0.36906    -0.70824       8     8     0
   0.83106     0.54099     0.43126     0.34694    -0.56270       8     8     0
   0.90334     0.54099     0.19068     0.18505    -0.35669       8     8     0
   0.95901     0.54099     0.06064     0.06822    -0.25624       8     8     0
   0.99204     0.54099     0.03218     0.01264    -0.23449       8     8     0
   1.00000     0.54099     0.03179    -0.00082    -0.23348       8     8     0
   0.50000     0.59666     0.25719    -0.49375     0.02263       8     8     0
   0.50796     0.59666     0.22912    -0.48493     0.00492       8     8     0
   0.54099     0.59666     0.12707    -0.41819    -0.08773       8     8     0
   0.59666     0.59666     0.01233    -0.26752    -0.26752       8     8     0
   0.66894     0.59666     0.10369    -0.00874    -0.52405       8     8     0
   0.75000     0.59666     0.44040     0.32885    -0.76344       8     8     0
   0.83106     0.59666     0.58284     0.47722    -0.77552       8     8     0
   0.90334     0.59666     0.40928     0.34085    -0.59388       8     8     0
   0.95901     0.59666     0.24171     0.14679    -0.45704       8     8     0
   0.99204     0.59666     0.19837     0.02881    -0.42337       8     8     0
   1.00000     0.59666     0.19700    -0.00068    -0.42182       8     8     0
   0.50000     0.66894     0.43692    -0.62480     0.22545       8     8     0
   0.50796     0.66894     0.41893    -0.63166     0.21866       8     8     0
   0.54099     0.66894     0.32737    -0.62094     0.16017       8     8     0
   0.59666     0.66894     0.10369    -0.52405    -0.00874       8     8     0
   0.66894     0.66894    -0.09838    -0.29917    -0.29917       8     8     0
   0.75000     0.66894     0.10655     0.09877    -0.66713       8     8     0
   0.83106     0.66894     0.54079     0.47253    -0.93796       8     8     0
   0.90334     0.66894     0.70049     0.49622    -0.97398       8     8     0
   0.95901     0.66894     0.66399     0.25581    -0.91678       8     8     0
   0.99204     0.66894     0.64454     0.05226    -0.89786       8     8     0
   1.00000     0.66894     0.64187     0.00161    -0.89731       8     8     0
   0.50000     0.75000     0.48018    -0.60199     0.32491       8     8     0
   0.50796     0.75000     0.49732    -0.62477     0.33688       8     8     0
   0.54099     0.75000     0.53056    -0.70824     0.36906       8     8     0
   0.59666     0.75000     0.44040    -0.76344     0.32885       8     8     0
   0.66894     0.75000     0.10655    -0.66713     0.09877       8     8     0
   0.75000     0.75000    -0.09588    -0.33550    -0.33550       8     8     0
   0.83106     0.75000     0.29827     0.12448    -0.86653       8     8     0
   0.90334     0.75000     0.90449     0.33340    -1.29867       8     8     0
   0.95901     0.75000     1.22782     0.20833    -1.50595       8     8     0
   0.99204     0.75000     1.30067     0.04349    -1.55148       8     8     0
   1.00000     0.75000     1.30250     0.00108    -1.55332       8     8     0
   0.50000     0.83106     0.28207    -0.41030     0.23213       8     8     0
   0.50796     0.83106     0.31384    -0.43586     0.25321       8     8     0
   0.54099     0.83106     0.43126    -0.56270     0.34694       8     8     0
   0.59666     0.83106     0.58284    -0.77552     0.47722       8     8     0
   0.66894     0.83106     0.54079    -0.93796     0.47253       8     8     0
   0.75000     0.83106     0.29827    -0.86653     0.12448       8     8     0
   0.83106     0.83106     0.46429    -0.55772    -0.55772       8     8     0
   0.90334     0.83106     1.09822    -0.25511    -1.25117       8     8     0
   0.95901     0.83106     1.54772    -0.08621    -1.62918       8     8     0
   0.99204     0.83106     1.66028    -0.01636    -1.71730       8     8     0
   1.00000     0.83106     1.66871    -0.00381    -1.72055       8     8     0
   0.50000     0.90334     0.07760    -0.24095     0.09909       8     8     0
   0.50796     0.90334     0.09788    -0.25791     0.11319       8     8     0
   0.54099     0.90334     0.19068    -0.35669     0.18505       8     8     0
   0.59666     0.90334     0.40928    -0.59388     0.34085       8     8     0
   0.66894     0.90334     0.70049    -0.97398     0.49622       8     8     0
   0.75000     0.90334     0.90449    -1.29867     0.33340       8     8     0
   0.83106     0.90334     1.09822    -1.25117    -0.25511       8     8     0
   0.90334     0.90334     1.33937    -0.84354    -0.84354       8     8     0
   0.95901     0.90334     1.48192    -0.37482    -1.12451       8     8     0
   0.99204     0.90334     1.51548    -0.07387    -1.18763       8     8     0
   1.00000     0.90334     1.51917    -0.00226    -1.19038       8     8     0
   0.50000     0.95901    -0.00553    -0.17630     0.03293       8     8     0
   0.50796     0.95901     0.00510    -0.18657     0.03832       8     8     0
   0.54099     0.95901     0.06064    -0.25624     0.06822       8     8     0
   0.59666     0.95901     0.24171    -0.45704     0.14679       8     8     0
   0.66894     0.95901     0.66399    -0.91678     0.25581       8     8     0
   0.75000     0.95901     1.22782    -1.50595     0.20833       8     8     0
   0.83106     0.95901     1.54772    -1.62918    -0.08621       8     8     0
   0.90334     0.95901     1.48192    -1.12451    -0.37482       8     8     0
   0.95901     0.95901     1.34574    -0.49862    -0.49862       8     8     0
   0.99204     0.95901     1.30482    -0.09756    -0.52546       8     8     0
   1.00000     0.95901     1.30007     0.00325    -0.52682       8     8     0
   0.50000     0.99204    -0.02188    -0.16329     0.00569       8     8     0
   0.50796     0.99204    -0.01360    -0.17204     0.00674       8     8     0
   0.54099     0.99204     0.03218    -0.23449     0.01264       8     8     0
   0.59666     0.99204     0.19837    -0.42337     0.02881       8     8     0
   0.66894     0.99204     0.64454    -0.89786     0.05226       8     8     0
   0.75000     0.99204     1.30067    -1.55148     0.04349       8     8     0
   0.83106     0.99204     1.66028    -1.71730    -0.01636       8     8     0
   0.90334     0.99204     1.51548    -1.18763    -0.07387       8     8     0
   0.95901     0.99204     1.30482    -0.52546    -0.09756       8     8     0
   0.99204     0.99204     1.24389    -0.10261    -0.10261       8     8     0
   1.00000     0.99204     1.23662     0.00497    -0.10288       8     8     0
   0.50000     1.00000    -0.02181    -0.16271    -0.00069       8     8     0
   0.50796     1.00000    -0.01363    -0.17144    -0.00067       8     8     0
   0.54099     1.00000     0.03179    -0.23348    -0.00082       8     8     0
   0.59666     1.00000     0.19700    -0.42182    -0.00068       8     8     0
   0.66894     1.00000     0.64187    -0.89731     0.00161       8     8     0
   0.75000     1.00000     1.30250    -1.55332     0.00108       8     8     0
   0.83106     1.00000     1.66871    -1.72055    -0.00381       8     8     0
   0.90334     1.00000     1.51917    -1.19038    -0.00226       8     8     0
   0.95901     1.00000     1.30007    -0.52682     0.00325       8     8     0
   0.99204     1.00000     1.23662    -0.10288     0.00497       8     8     0
   1.00000     1.00000     1.22922     0.00497     0.00497       8     8     0
ZONE T= "IEL     4",  I=11,  J=11,  SOLUTIONTIME=   1.54020,  DATAPACKING = POINT
   0.50000     0.00000     0.07274    -0.11754    -0.07319       8     8     0
   0.50796     0.00000     0.07057    -0.11604    -0.07105       8     8     0
   0.54099     0.00000     0.06178    -0.10945    -0.06236       8     8     0
   0.59666     0.00000     0.04841    -0.09719    -0.04867       8     8     0
   0.66894     0.00000     0.03327    -0.08015    -0.03291       8     8     0
   0.75000     0.00000     0.01888    -0.06077    -0.01862       8     8     0
   0.83106     0.00000     0.00855    -0.04118    -0.00865       8     8     0
   0.90334     0.00000     0.00289    -0.02349    -0.00298       8     8     0
   0.95901     0.00000     0.00040    -0.00992    -0.00050       8     8     0
   0.99204     0.00000    -0.00019    -0.00193     0.00008       8     8     0
   1.00000     0.00000    -0.00020    -0.00000     0.00011       8     8     0